/*--------------------------------*- C++ -*----------------------------------*\
| =========                 |                                                 |
| \\      /  F ield         | OpenFOAM: The Open Source CFD Toolbox           |
|  \\    /   O peration     | Version:  v2012                                 |
|   \\  /    A nd           | Website:  www.openfoam.com                      |
|    \\/     M anipulation  |                                                 |
\*---------------------------------------------------------------------------*/
FoamFile
{
    version     2.0;
    format      ascii;
    class       volVectorField;
    location    "48";
    object      Nb;
}
// * * * * * * * * * * * * * * * * * * * * * * * * * * * * * * * * * * * * * //

dimensions      [1 -2 -1 0 0 0 0];


internalField   nonuniform List<vector> 
100
(
(0 0 -3.55365e-11)
(0 0 -3.60697e-11)
(0 0 -3.66066e-11)
(0 0 -3.71472e-11)
(0 0 -3.76916e-11)
(0 0 -3.82398e-11)
(0 0 -3.87918e-11)
(0 0 -3.93476e-11)
(0 0 -3.99073e-11)
(0 0 -4.04709e-11)
(0 0 -4.10384e-11)
(0 0 -4.16099e-11)
(0 0 -4.21853e-11)
(0 0 -4.27647e-11)
(0 0 -4.33482e-11)
(0 0 -4.39357e-11)
(0 0 -4.45273e-11)
(0 0 -4.5123e-11)
(0 0 -4.57229e-11)
(0 0 -4.63269e-11)
(0 0 -4.69351e-11)
(0 0 -4.75476e-11)
(0 0 -4.81643e-11)
(0 0 -4.87854e-11)
(0 0 -4.94107e-11)
(0 0 -5.00404e-11)
(0 0 -5.06744e-11)
(0 0 -5.13129e-11)
(0 0 -5.19558e-11)
(0 0 -5.26032e-11)
(0 0 -5.32551e-11)
(0 0 -5.39116e-11)
(0 0 -5.45725e-11)
(0 0 -5.52381e-11)
(0 0 -5.59084e-11)
(0 0 -5.65832e-11)
(0 0 -5.72628e-11)
(0 0 -5.79471e-11)
(0 0 -5.86362e-11)
(0 0 -5.933e-11)
(0 0 -6.00287e-11)
(0 0 -6.07323e-11)
(0 0 -6.14407e-11)
(0 0 -6.2154e-11)
(0 0 -6.28724e-11)
(0 0 -6.35957e-11)
(0 0 -6.4324e-11)
(0 0 -6.50575e-11)
(0 0 -6.5796e-11)
(0 0 -6.65396e-11)
(0 0 -6.72885e-11)
(0 0 -6.80425e-11)
(0 0 -6.88018e-11)
(0 0 -6.95663e-11)
(0 0 -7.03362e-11)
(0 0 -7.11115e-11)
(0 0 -7.18921e-11)
(0 0 -7.26781e-11)
(0 0 -7.34697e-11)
(0 0 -7.42667e-11)
(0 0 -7.50693e-11)
(0 0 -7.58774e-11)
(0 0 -7.66912e-11)
(0 0 -7.75107e-11)
(0 0 -7.83358e-11)
(0 0 -7.91667e-11)
(0 0 -8.00033e-11)
(0 0 -8.08458e-11)
(0 0 -8.16941e-11)
(0 0 -8.25484e-11)
(0 0 -8.34086e-11)
(0 0 -8.42747e-11)
(0 0 -8.51469e-11)
(0 0 -8.60252e-11)
(0 0 -8.69095e-11)
(0 0 -8.78e-11)
(0 0 -8.86967e-11)
(0 0 -8.95997e-11)
(0 0 -9.05089e-11)
(0 0 -9.14244e-11)
(0 0 -9.23464e-11)
(0 0 -9.32747e-11)
(0 0 -9.42095e-11)
(0 0 -9.51508e-11)
(0 0 -9.60986e-11)
(0 0 -9.7053e-11)
(0 0 -9.80141e-11)
(0 0 -9.89818e-11)
(0 0 -9.99563e-11)
(0 0 -1.00938e-10)
(0 0 -1.01926e-10)
(0 0 -1.02921e-10)
(0 0 -1.03923e-10)
(0 0 -1.04931e-10)
(0 0 -1.05947e-10)
(0 0 -1.0697e-10)
(0 0 -1.08e-10)
(0 0 -1.09037e-10)
(0 0 -1.10082e-10)
(0 0 -1.11134e-10)
)
;

boundaryField
{
    bottom
    {
        type            calculated;
        value           uniform (0 0 4.1119e-11);
    }
    top
    {
        type            calculated;
        value           uniform (0 0 4.1119e-11);
    }
    sidesX
    {
        type            empty;
    }
    sidesY
    {
        type            empty;
    }
}


// ************************************************************************* //
