/*--------------------------------*- C++ -*----------------------------------*\
| =========                 |                                                 |
| \\      /  F ield         | OpenFOAM: The Open Source CFD Toolbox           |
|  \\    /   O peration     | Version:  v2012                                 |
|   \\  /    A nd           | Website:  www.openfoam.com                      |
|    \\/     M anipulation  |                                                 |
\*---------------------------------------------------------------------------*/
FoamFile
{
    version     2.0;
    format      ascii;
    class       volVectorField;
    location    "199.8";
    object      U_ver;
}
// * * * * * * * * * * * * * * * * * * * * * * * * * * * * * * * * * * * * * //

dimensions      [0 1 -1 0 0 0 0];


internalField   nonuniform List<vector> 
100
(
(-0 -0 5.82105e-06)
(-0 -0 5.81747e-06)
(-0 -0 5.81549e-06)
(-0 -0 5.81463e-06)
(-0 -0 5.81451e-06)
(-0 -0 5.81484e-06)
(-0 -0 5.81541e-06)
(-0 -0 5.81609e-06)
(-0 -0 5.81679e-06)
(-0 -0 5.81747e-06)
(-0 -0 5.81808e-06)
(-0 -0 5.81863e-06)
(-0 -0 5.81912e-06)
(-0 -0 5.81954e-06)
(-0 -0 5.81991e-06)
(-0 -0 5.82022e-06)
(-0 -0 5.8205e-06)
(-0 -0 5.82074e-06)
(-0 -0 5.82095e-06)
(-0 -0 5.82113e-06)
(-0 -0 5.82129e-06)
(-0 -0 5.82144e-06)
(-0 -0 5.82157e-06)
(-0 -0 5.82169e-06)
(-0 -0 5.82179e-06)
(-0 -0 5.82188e-06)
(-0 -0 5.82197e-06)
(-0 -0 5.82205e-06)
(-0 -0 5.82212e-06)
(-0 -0 5.82218e-06)
(-0 -0 5.82224e-06)
(-0 -0 5.8223e-06)
(-0 -0 5.82235e-06)
(-0 -0 5.8224e-06)
(-0 -0 5.82244e-06)
(-0 -0 5.82248e-06)
(-0 -0 5.82252e-06)
(-0 -0 5.82255e-06)
(-0 -0 5.82259e-06)
(-0 -0 5.82262e-06)
(-0 -0 5.82265e-06)
(-0 -0 5.82267e-06)
(-0 -0 5.8227e-06)
(-0 -0 5.82272e-06)
(-0 -0 5.82275e-06)
(-0 -0 5.82277e-06)
(-0 -0 5.82279e-06)
(-0 -0 5.82281e-06)
(-0 -0 5.82282e-06)
(-0 -0 5.82284e-06)
(-0 -0 5.82286e-06)
(-0 -0 5.82287e-06)
(-0 -0 5.82289e-06)
(-0 -0 5.8229e-06)
(-0 -0 5.82291e-06)
(-0 -0 5.82292e-06)
(-0 -0 5.82294e-06)
(-0 -0 5.82295e-06)
(-0 -0 5.82296e-06)
(-0 -0 5.82297e-06)
(-0 -0 5.82298e-06)
(-0 -0 5.82299e-06)
(-0 -0 5.823e-06)
(-0 -0 5.82301e-06)
(-0 -0 5.82301e-06)
(-0 -0 5.82302e-06)
(-0 -0 5.82303e-06)
(-0 -0 5.82304e-06)
(-0 -0 5.82304e-06)
(-0 -0 5.82305e-06)
(-0 -0 5.82306e-06)
(-0 -0 5.82306e-06)
(-0 -0 5.82307e-06)
(-0 -0 5.82307e-06)
(-0 -0 5.82308e-06)
(-0 -0 5.82309e-06)
(-0 -0 5.82309e-06)
(-0 -0 5.8231e-06)
(-0 -0 5.8231e-06)
(-0 -0 5.8231e-06)
(-0 -0 5.82311e-06)
(-0 -0 5.82311e-06)
(-0 -0 5.82312e-06)
(-0 -0 5.82312e-06)
(-0 -0 5.82313e-06)
(-0 -0 5.82313e-06)
(-0 -0 5.82313e-06)
(-0 -0 5.82314e-06)
(-0 -0 5.82314e-06)
(-0 -0 5.82314e-06)
(-0 -0 5.82315e-06)
(-0 -0 5.82315e-06)
(-0 -0 5.82315e-06)
(-0 -0 5.82316e-06)
(-0 -0 5.82316e-06)
(-0 -0 5.82316e-06)
(-0 -0 5.82317e-06)
(-0 -0 5.82317e-06)
(-0 -0 5.82319e-06)
(-0 -0 5.82326e-06)
)
;

boundaryField
{
    bottom
    {
        type            calculated;
        value           uniform (-0 -0 5.8233e-06);
    }
    top
    {
        type            calculated;
        value           uniform (-0 -0 5.8233e-06);
    }
    sidesX
    {
        type            empty;
    }
    sidesY
    {
        type            empty;
    }
}


// ************************************************************************* //
