/*--------------------------------*- C++ -*----------------------------------*\
| =========                 |                                                 |
| \\      /  F ield         | OpenFOAM: The Open Source CFD Toolbox           |
|  \\    /   O peration     | Version:  v2012                                 |
|   \\  /    A nd           | Website:  www.openfoam.com                      |
|    \\/     M anipulation  |                                                 |
\*---------------------------------------------------------------------------*/
FoamFile
{
    version     2.0;
    format      ascii;
    class       volVectorField;
    location    "49";
    object      jb;
}
// * * * * * * * * * * * * * * * * * * * * * * * * * * * * * * * * * * * * * //

dimensions      [1 -2 -1 0 0 0 0];


internalField   nonuniform List<vector> 
100
(
(-0 -0 -2.88213e-06)
(-0 -0 -3.15794e-06)
(-0 -0 -3.45422e-06)
(-0 -0 -3.76823e-06)
(-0 -0 -4.10015e-06)
(-0 -0 -4.45012e-06)
(-0 -0 -4.8182e-06)
(-0 -0 -5.2044e-06)
(-0 -0 -5.60867e-06)
(-0 -0 -6.0309e-06)
(-0 -0 -6.47091e-06)
(-0 -0 -6.92849e-06)
(-0 -0 -7.40334e-06)
(-0 -0 -7.89514e-06)
(-0 -0 -8.40349e-06)
(-0 -0 -8.92797e-06)
(-0 -0 -9.4681e-06)
(-0 -0 -1.00233e-05)
(-0 -0 -1.05932e-05)
(-0 -0 -1.11769e-05)
(-0 -0 -1.17741e-05)
(-0 -0 -1.23839e-05)
(-0 -0 -1.30057e-05)
(-0 -0 -1.36388e-05)
(-0 -0 -1.42825e-05)
(-0 -0 -1.4936e-05)
(-0 -0 -1.55986e-05)
(-0 -0 -1.62696e-05)
(-0 -0 -1.69481e-05)
(-0 -0 -1.76334e-05)
(-0 -0 -1.83248e-05)
(-0 -0 -1.90215e-05)
(-0 -0 -1.97228e-05)
(-0 -0 -2.04278e-05)
(-0 -0 -2.11359e-05)
(-0 -0 -2.18464e-05)
(-0 -0 -2.25585e-05)
(-0 -0 -2.32715e-05)
(-0 -0 -2.39849e-05)
(-0 -0 -2.46978e-05)
(-0 -0 -2.54098e-05)
(-0 -0 -2.61202e-05)
(-0 -0 -2.68283e-05)
(-0 -0 -2.75337e-05)
(-0 -0 -2.82358e-05)
(-0 -0 -2.89341e-05)
(-0 -0 -2.9628e-05)
(-0 -0 -3.03172e-05)
(-0 -0 -3.10012e-05)
(-0 -0 -3.16795e-05)
(-0 -0 -3.23517e-05)
(-0 -0 -3.30176e-05)
(-0 -0 -3.36767e-05)
(-0 -0 -3.43287e-05)
(-0 -0 -3.49734e-05)
(-0 -0 -3.56104e-05)
(-0 -0 -3.62396e-05)
(-0 -0 -3.68605e-05)
(-0 -0 -3.74732e-05)
(-0 -0 -3.80773e-05)
(-0 -0 -3.86727e-05)
(-0 -0 -3.92593e-05)
(-0 -0 -3.98369e-05)
(-0 -0 -4.04053e-05)
(-0 -0 -4.09646e-05)
(-0 -0 -4.15146e-05)
(-0 -0 -4.20553e-05)
(-0 -0 -4.25866e-05)
(-0 -0 -4.31085e-05)
(-0 -0 -4.36209e-05)
(-0 -0 -4.41239e-05)
(-0 -0 -4.46174e-05)
(-0 -0 -4.51015e-05)
(-0 -0 -4.55762e-05)
(-0 -0 -4.60415e-05)
(-0 -0 -4.64974e-05)
(-0 -0 -4.69441e-05)
(-0 -0 -4.73816e-05)
(-0 -0 -4.78099e-05)
(-0 -0 -4.82292e-05)
(-0 -0 -4.86395e-05)
(-0 -0 -4.90409e-05)
(-0 -0 -4.94335e-05)
(-0 -0 -4.98174e-05)
(-0 -0 -5.01926e-05)
(-0 -0 -5.05595e-05)
(-0 -0 -5.09179e-05)
(-0 -0 -5.12681e-05)
(-0 -0 -5.16101e-05)
(-0 -0 -5.19442e-05)
(-0 -0 -5.22703e-05)
(-0 -0 -5.25887e-05)
(-0 -0 -5.28994e-05)
(-0 -0 -5.32027e-05)
(-0 -0 -5.34985e-05)
(-0 -0 -5.37871e-05)
(-0 -0 -5.40686e-05)
(-0 -0 -5.43431e-05)
(-0 -0 -5.46108e-05)
(-0 -0 -5.48719e-05)
)
;

boundaryField
{
    bottom
    {
        type            calculated;
        value           uniform (-0 -0 -2.75004e-06);
    }
    top
    {
        type            calculated;
        value           uniform (-0 -0 -5.50008e-05);
    }
    sidesX
    {
        type            empty;
    }
    sidesY
    {
        type            empty;
    }
}


// ************************************************************************* //
