/*--------------------------------*- C++ -*----------------------------------*\
| =========                 |                                                 |
| \\      /  F ield         | OpenFOAM: The Open Source CFD Toolbox           |
|  \\    /   O peration     | Version:  v2012                                 |
|   \\  /    A nd           | Website:  www.openfoam.com                      |
|    \\/     M anipulation  |                                                 |
\*---------------------------------------------------------------------------*/
FoamFile
{
    version     2.0;
    format      ascii;
    class       volVectorField;
    location    "48";
    object      Nb;
}
// * * * * * * * * * * * * * * * * * * * * * * * * * * * * * * * * * * * * * //

dimensions      [1 -2 -1 0 0 0 0];


internalField   nonuniform List<vector> 
3200
(
(-0 -0 -3.41354e-19)
(-0 -0 -3.40084e-19)
(-0 -0 5.10337e-19)
(-0 -0 1.53906e-18)
(-0 -0 -1.19898e-18)
(-0 -0 -3.08616e-18)
(-0 -0 3.60243e-18)
(-0 -0 -3.41778e-19)
(-0 -0 -3.46436e-19)
(-0 -0 6.89485e-19)
(-0 -0 -1.70254e-19)
(-0 -0 1.03592e-18)
(-0 -0 -2.06845e-18)
(-0 -0 -1.55685e-18)
(-0 -0 1.38066e-18)
(-0 -0 -1.76183e-19)
(-0 -0 -3.43472e-19)
(-0 -0 6.95414e-19)
(-0 -0 -3.48978e-19)
(-0 -0 -1.7343e-18)
(-0 -0 4.69426e-18)
(-0 -0 1.7703e-19)
(-0 -0 -5.05128e-18)
(-0 -0 1.57125e-18)
(-0 -0 1.21973e-18)
(-0 -0 1.57336e-18)
(-0 -0 -1.74743e-18)
(-0 -0 1.22142e-18)
(-0 -0 -7.02614e-19)
(-0 -0 3.50672e-19)
(-0 -0 -1.57633e-18)
(-0 -0 2.45851e-18)
(-0 -0 -2.81469e-18)
(-0 -0 1.58183e-18)
(-0 -0 -1.40777e-18)
(-0 -0 1.23497e-18)
(-0 -0 -1.79147e-19)
(-0 -0 -1.27055e-21)
(-0 -0 -1.41582e-18)
(-0 -0 -7.07273e-19)
(-0 -0 2.48223e-18)
(-0 -0 -2.12605e-18)
(-0 -0 7.06425e-19)
(-0 -0 -1.7703e-19)
(-0 -0 -2.11758e-21)
(-0 -0 1.75336e-19)
(-0 -0 -1.24471e-18)
(-0 -0 2.85281e-18)
(-0 -0 -1.42894e-18)
(-0 -0 -3.57024e-19)
(-0 -0 -1.81689e-19)
(-0 -0 -1.79571e-19)
(-0 -0 2.32976e-18)
(-0 -0 5.36172e-19)
(-0 -0 -1.97486e-18)
(-0 -0 -2.15739e-18)
(-0 -0 1.07997e-18)
(-0 -0 3.6253e-19)
(-0 -0 1.08039e-18)
(-0 -0 1.98121e-18)
(-0 -0 -5.39136e-19)
(-0 -0 -1.0859e-18)
(-0 -0 -1.44504e-18)
(-0 -0 1.78724e-19)
(-0 -0 -1.81053e-18)
(-0 -0 1.26631e-18)
(-0 -0 5.42101e-19)
(-0 -0 5.4676e-19)
(-0 -0 -9.06749e-19)
(-0 -0 -1.81265e-19)
(-0 -0 2.18662e-18)
(-0 -0 -3.64648e-19)
(-0 -0 1.84653e-19)
(-0 -0 -3.67189e-19)
(-0 -0 -1.64663e-18)
(-0 -0 1.46156e-18)
(-0 -0 1.09606e-18)
(-0 -0 -1.83086e-18)
(-0 -0 7.3226e-19)
(-0 -0 -9.16913e-19)
(-0 -0 -7.34378e-19)
(-0 -0 2.39202e-18)
(-0 -0 -1.65934e-18)
(-0 -0 1.47426e-18)
(-0 -0 2.58049e-18)
(-0 -0 -3.32376e-18)
(-0 -0 5.56077e-19)
(-0 -0 -7.37342e-19)
(-0 -0 -7.3946e-19)
(-0 -0 1.85288e-18)
(-0 -0 -1.27055e-21)
(-0 -0 -2.60081e-18)
(-0 -0 2.41574e-18)
(-0 -0 -2.42209e-18)
(-0 -0 7.4793e-19)
(-0 -0 -3.73542e-19)
(-0 -0 5.62006e-19)
(-0 -0 2.05405e-18)
(-0 -0 -1.68136e-18)
(-0 -0 7.48354e-19)
(-0 -0 2.11758e-21)
(-0 -0 -3.72271e-19)
(-0 -0 -3.00104e-18)
(-0 -0 3.37839e-18)
(-0 -0 -2.06973e-18)
(-0 -0 3.79047e-19)
(-0 -0 -7.55553e-19)
(-0 -0 4.33723e-18)
(-0 -0 -1.70211e-18)
(-0 -0 -2.26708e-18)
(-0 -0 3.40592e-18)
(-0 -0 -4.16698e-18)
(-0 -0 1.13714e-18)
(-0 -0 2.65248e-18)
(-0 -0 -1.70847e-18)
(-0 -0 3.80318e-19)
(-0 -0 4.23516e-22)
(-0 -0 -2.28191e-18)
(-0 -0 1.71778e-18)
(-0 -0 1.90582e-18)
(-0 -0 -1.71524e-18)
(-0 -0 1.69407e-21)
(-0 -0 1.34001e-18)
(-0 -0 -1.91514e-18)
(-0 -0 1.72287e-18)
(-0 -0 5.75982e-19)
(-0 -0 -2.68848e-18)
(-0 -0 1.92192e-18)
(-0 -0 1.34932e-18)
(-0 -0 -2.69611e-18)
(-0 -0 -3.86247e-19)
(-0 -0 -2.5411e-21)
(-0 -0 1.1562e-18)
(-0 -0 1.93208e-18)
(-0 -0 -1.54668e-18)
(-0 -0 1.55092e-18)
(-0 -0 -3.29157e-18)
(-0 -0 3.10099e-18)
(-0 -0 -2.71982e-18)
(-0 -0 -3.89635e-19)
(-0 -0 2.14045e-18)
(-0 -0 -3.89635e-19)
(-0 -0 2.3412e-18)
(-0 -0 -4.48335e-18)
(-0 -0 2.73168e-18)
(-0 -0 -3.51688e-18)
(-0 -0 7.83505e-19)
(-0 -0 1.17568e-18)
(-0 -0 1.92276e-19)
(-0 -0 -1.95834e-18)
(-0 -0 3.92684e-18)
(-0 -0 -1.57209e-18)
(-0 -0 -1.69407e-21)
(-0 -0 -7.87741e-19)
(-0 -0 0)
(-0 -0 2.95784e-18)
(-0 -0 -1.77877e-18)
(-0 -0 -3.94971e-18)
(-0 -0 4.54687e-18)
(-0 -0 1.18839e-18)
(-0 -0 -3.96411e-18)
(-0 -0 2.5411e-21)
(-0 -0 2.18196e-18)
(-0 -0 -1.19093e-18)
(-0 -0 3.58041e-18)
(-0 -0 -4.77727e-18)
(-0 -0 7.98752e-19)
(-0 -0 2.99257e-18)
(-0 -0 -2.59361e-18)
(-0 -0 1.40184e-18)
(-0 -0 -1.98206e-19)
(-0 -0 -3.38813e-21)
(-0 -0 -2.40473e-18)
(-0 -0 2.20483e-18)
(-0 -0 6.04782e-19)
(-0 -0 -3.01205e-18)
(-0 -0 -1.00628e-18)
(-0 -0 3.42117e-18)
(-0 -0 -6.07323e-19)
(-0 -0 4.04035e-19)
(-0 -0 -2.5411e-21)
(-0 -0 -1.21465e-18)
(-0 -0 -1.0139e-18)
(-0 -0 2.42929e-18)
(-0 -0 -1.01559e-18)
(-0 -0 -1.21973e-18)
(-0 -0 -1.22142e-18)
(-0 -0 2.03203e-18)
(-0 -0 8.13152e-19)
(-0 -0 4.10811e-19)
(-0 -0 -8.14846e-19)
(-0 -0 -4.06576e-19)
(-0 -0 2.44877e-18)
(-0 -0 -3.2687e-18)
(-0 -0 3.27463e-18)
(-0 -0 -3.6829e-18)
(-0 -0 2.87059e-18)
(-0 -0 8.19928e-19)
(-0 -0 -2.46487e-18)
(-0 -0 8.24163e-19)
(-0 -0 1.23328e-18)
(-0 -0 -2.05575e-18)
(-0 -0 -8.21622e-19)
(-0 -0 3.29665e-18)
(-0 -0 -3.30597e-18)
(-0 -0 2.47672e-18)
(-0 -0 -4.11658e-19)
(-0 -0 2.07269e-18)
(-0 -0 -2.07523e-18)
(-0 -0 -8.31786e-19)
(-0 -0 3.7405e-18)
(-0 -0 -3.73965e-18)
(-0 -0 -8.29245e-19)
(-0 -0 2.08201e-18)
(-0 -0 -4.18434e-19)
(-0 -0 1.25022e-18)
(-0 -0 -1.67289e-18)
(-0 -0 2.92565e-18)
(-0 -0 -4.1835e-18)
(-0 -0 1.25615e-18)
(-0 -0 0)
(-0 -0 0)
(-0 -0 1.69407e-21)
(-0 -0 1.25784e-18)
(-0 -0 -4.20637e-18)
(-0 -0 2.52416e-18)
(-0 -0 -4.20128e-19)
(-0 -0 2.95276e-18)
(-0 -0 8.44492e-19)
(-0 -0 -3.38305e-18)
(-0 -0 -8.47033e-19)
(-0 -0 -8.47033e-19)
(-0 -0 3.38983e-18)
(-0 -0 1.2697e-18)
(-0 -0 -2.12436e-18)
(-0 -0 1.69661e-18)
(-0 -0 -4.24364e-19)
(-0 -0 -8.48727e-19)
(-0 -0 -8.55503e-19)
(-0 -0 -8.53809e-19)
(-0 -0 -1.70592e-18)
(-0 -0 4.29446e-19)
(-0 -0 1.2841e-18)
(-0 -0 4.25211e-19)
(-0 -0 2.57329e-18)
(-0 -0 -2.14723e-18)
(-0 -0 0)
(-0 -0 1.71863e-18)
(-0 -0 2.14892e-18)
(-0 -0 -4.73746e-18)
(-0 -0 1.29427e-18)
(-0 -0 2.59023e-18)
(-0 -0 -3.45505e-18)
(-0 -0 2.15993e-18)
(-0 -0 -1.73049e-18)
(-0 -0 1.69407e-21)
(-0 -0 1.73557e-18)
(-0 -0 4.34528e-19)
(-0 -0 -1.73981e-18)
(-0 -0 -3.0417e-18)
(-0 -0 1.73811e-18)
(-0 -0 2.61733e-18)
(-0 -0 -2.61479e-18)
(-0 -0 2.62072e-18)
(-0 -0 -2.18365e-18)
(-0 -0 1.74658e-18)
(-0 -0 1.74997e-18)
(-0 -0 -3.06287e-18)
(-0 -0 2.18958e-18)
(-0 -0 -1.31629e-18)
(-0 -0 -1.32052e-18)
(-0 -0 1.75929e-18)
(-0 -0 -1.31968e-18)
(-0 -0 -2.20144e-18)
(-0 -0 1.32222e-18)
(-0 -0 -4.41304e-19)
(-0 -0 1.3273e-18)
(-0 -0 2.64782e-18)
(-0 -0 1.32815e-18)
(-0 -0 -2.66053e-18)
(-0 -0 -8.86843e-19)
(-0 -0 -8.86843e-19)
(-0 -0 4.41304e-19)
(-0 -0 -1.33492e-18)
(-0 -0 1.783e-18)
(-0 -0 1.33492e-18)
(-0 -0 -3.56686e-18)
(-0 -0 4.48927e-19)
(-0 -0 -4.4808e-19)
(-0 -0 1.78978e-18)
(-0 -0 1.79232e-18)
(-0 -0 -2.69018e-18)
(-0 -0 2.68933e-18)
(-0 -0 -3.13995e-18)
(-0 -0 3.14757e-18)
(-0 -0 -8.98702e-19)
(-0 -0 -4.46386e-19)
(-0 -0 -2.70204e-18)
(-0 -0 3.15859e-18)
(-0 -0 -4.51638e-18)
(-0 -0 4.06745e-18)
(-0 -0 -9.06325e-19)
(-0 -0 -1.36203e-18)
(-0 -0 2.72067e-18)
(-0 -0 1.69407e-21)
(-0 -0 -3.17553e-18)
(-0 -0 1.36288e-18)
(-0 -0 1.81689e-18)
(-0 -0 -2.27598e-18)
(-0 -0 1.82027e-18)
(-0 -0 -9.1056e-19)
(-0 -0 -9.14796e-19)
(-0 -0 1.3705e-18)
(-0 -0 -3.65918e-18)
(-0 -0 4.12166e-18)
(-0 -0 -1.83298e-18)
(-0 -0 -9.17337e-19)
(-0 -0 4.58922e-18)
(-0 -0 -9.20725e-19)
(-0 -0 -9.19031e-19)
(-0 -0 4.60786e-19)
(-0 -0 -4.6248e-19)
(-0 -0 -4.63327e-19)
(-0 -0 -9.20725e-19)
(-0 -0 1.69407e-21)
(-0 -0 4.59939e-19)
(-0 -0 2.31409e-18)
(-0 -0 4.63327e-19)
(-0 -0 -4.67562e-19)
(-0 -0 -1.85754e-18)
(-0 -0 -3.25091e-18)
(-0 -0 2.78843e-18)
(-0 -0 4.18858e-18)
(-0 -0 -4.66122e-18)
(-0 -0 3.73372e-18)
(-0 -0 4.65868e-19)
(-0 -0 -4.67054e-18)
(-0 -0 4.67562e-19)
(-0 -0 2.8113e-18)
(-0 -0 -4.69256e-19)
(-0 -0 9.36818e-19)
(-0 -0 -2.34882e-18)
(-0 -0 1.87872e-18)
(-0 -0 -4.67562e-19)
(-0 -0 9.43595e-19)
(-0 -0 -1.88465e-18)
(-0 -0 -4.68409e-19)
(-0 -0 -1.89058e-18)
(-0 -0 2.83756e-18)
(-0 -0 9.46136e-19)
(-0 -0 1.41793e-18)
(-0 -0 -3.31868e-18)
(-0 -0 1.89989e-18)
(-0 -0 1.4264e-18)
(-0 -0 -4.72644e-19)
(-0 -0 -2.8545e-18)
(-0 -0 -4.76033e-19)
(-0 -0 3.81334e-18)
(-0 -0 -9.54606e-19)
(-0 -0 -9.563e-19)
(-0 -0 1.43741e-18)
(-0 -0 -3.34917e-18)
(-0 -0 -9.563e-19)
(-0 -0 1.91684e-18)
(-0 -0 -9.60535e-19)
(-0 -0 1.43996e-18)
(-0 -0 2.88076e-18)
(-0 -0 -1.44334e-18)
(-0 -0 -9.63076e-19)
(-0 -0 -1.92615e-18)
(-0 -0 1.93124e-18)
(-0 -0 -1.93208e-18)
(-0 -0 3.3822e-18)
(-0 -0 -9.67312e-19)
(-0 -0 -9.68159e-19)
(-0 -0 -4.35883e-18)
(-0 -0 3.39491e-18)
(-0 -0 1.45859e-18)
(-0 -0 4.84503e-19)
(-0 -0 -1.4569e-18)
(-0 -0 -1.69407e-21)
(-0 -0 -4.8535e-19)
(-0 -0 4.8535e-19)
(-0 -0 4.87044e-19)
(-0 -0 4.90432e-19)
(-0 -0 -3.91329e-18)
(-0 -0 4.89754e-18)
(-0 -0 -1.96173e-18)
(-0 -0 4.92973e-19)
(-0 -0 -2.45385e-18)
(-0 -0 3.44234e-18)
(-0 -0 -4.92973e-19)
(-0 -0 -1.47723e-18)
(-0 -0 -1.97105e-18)
(-0 -0 2.96207e-18)
(-0 -0 2.4708e-18)
(-0 -0 -4.96361e-19)
(-0 -0 -3.46098e-18)
(-0 -0 -1.48824e-18)
(-0 -0 8.47033e-22)
(-0 -0 1.48824e-18)
(-0 -0 4.47064e-18)
(-0 -0 -2.98325e-18)
(-0 -0 -9.9357e-19)
(-0 -0 -9.96111e-19)
(-0 -0 1.99392e-18)
(-0 -0 -1.99984e-18)
(-0 -0 4.99157e-18)
(-0 -0 -2.00069e-18)
(-0 -0 -3.00443e-18)
(-0 -0 2.50383e-18)
(-0 -0 4.97208e-19)
(-0 -0 -2.00493e-18)
(-0 -0 8.47033e-22)
(-0 -0 5.01444e-19)
(-0 -0 -5.02291e-19)
(-0 -0 1.51026e-18)
(-0 -0 1.50941e-18)
(-0 -0 -1.5128e-18)
(-0 -0 -3.02899e-18)
(-0 -0 -5.0822e-19)
(-0 -0 5.06017e-18)
(-0 -0 -1.52127e-18)
(-0 -0 -1.01475e-18)
(-0 -0 1.01475e-18)
(-0 -0 -2.03288e-18)
(-0 -0 1.52805e-18)
(-0 -0 -5.04832e-19)
(-0 -0 1.52635e-18)
(-0 -0 -5.0822e-19)
(-0 -0 -2.55296e-18)
(-0 -0 4.08778e-18)
(-0 -0 -3.57617e-18)
(-0 -0 -3.06795e-18)
(-0 -0 7.68259e-18)
(-0 -0 -3.58803e-18)
(-0 -0 3.07981e-18)
(-0 -0 -4.10642e-18)
(-0 -0 1.0266e-18)
(-0 -0 2.0549e-18)
(-0 -0 5.13302e-19)
(-0 -0 -2.06507e-18)
(-0 -0 -1.03338e-18)
(-0 -0 1.03169e-18)
(-0 -0 1.03507e-18)
(-0 -0 -2.06845e-18)
(-0 -0 -1.03677e-18)
(-0 -0 3.62869e-18)
(-0 -0 -2.5987e-18)
(-0 -0 0)
(-0 -0 -2.60039e-18)
(-0 -0 0)
(-0 -0 4.68748e-18)
(-0 -0 5.18384e-19)
(-0 -0 -5.21942e-18)
(-0 -0 2.61564e-18)
(-0 -0 -1.04354e-18)
(-0 -0 3.14419e-18)
(-0 -0 1.04693e-18)
(-0 -0 0)
(-0 -0 -1.04693e-18)
(-0 -0 -2.6275e-18)
(-0 -0 3.15604e-18)
(-0 -0 1.58395e-18)
(-0 -0 -3.15774e-18)
(-0 -0 -5.2516e-19)
(-0 -0 1.69407e-21)
(-0 -0 2.64444e-18)
(-0 -0 5.26854e-19)
(-0 -0 -5.29396e-18)
(-0 -0 2.64782e-18)
(-0 -0 -5.28549e-19)
(-0 -0 -3.18146e-18)
(-0 -0 5.84622e-18)
(-0 -0 -1.06387e-18)
(-0 -0 -5.31937e-19)
(-0 -0 -1.60089e-18)
(-0 -0 -5.33631e-19)
(-0 -0 -1.69407e-21)
(-0 -0 5.38713e-19)
(-0 -0 -1.60089e-18)
(-0 -0 4.82131e-18)
(-0 -0 -2.13961e-18)
(-0 -0 -1.07404e-18)
(-0 -0 1.07404e-18)
(-0 -0 -5.35325e-19)
(-0 -0 -2.69018e-18)
(-0 -0 3.38813e-21)
(-0 -0 2.69695e-18)
(-0 -0 5.40407e-19)
(-0 -0 -2.69865e-18)
(-0 -0 4.86536e-18)
(-0 -0 -4.32834e-18)
(-0 -0 2.16502e-18)
(-0 -0 1.6263e-18)
(-0 -0 -5.43795e-19)
(-0 -0 1.08251e-18)
(-0 -0 -2.71389e-18)
(-0 -0 -1.08928e-18)
(-0 -0 2.72067e-18)
(-0 -0 -1.08928e-18)
(-0 -0 -2.72236e-18)
(-0 -0 3.27463e-18)
(-0 -0 -1.63816e-18)
(-0 -0 1.64155e-18)
(-0 -0 -3.28479e-18)
(-0 -0 3.28479e-18)
(-0 -0 -2.74269e-18)
(-0 -0 -1.69407e-21)
(-0 -0 1.09945e-18)
(-0 -0 1.09775e-18)
(-0 -0 1.69407e-21)
(-0 -0 0)
(-0 -0 -2.20567e-18)
(-0 -0 3.31529e-18)
(-0 -0 1.10114e-18)
(-0 -0 -4.42151e-18)
(-0 -0 4.42998e-18)
(-0 -0 -1.10792e-18)
(-0 -0 -1.113e-18)
(-0 -0 -2.22431e-18)
(-0 -0 1.10961e-18)
(-0 -0 1.10961e-18)
(-0 -0 -3.38813e-21)
(-0 -0 -2.23108e-18)
(-0 -0 3.34578e-18)
(-0 -0 -2.23108e-18)
(-0 -0 1.69407e-21)
(-0 -0 -1.12147e-18)
(-0 -0 3.36272e-18)
(-0 -0 3.38813e-21)
(-0 -0 -4.48589e-18)
(-0 -0 2.24294e-18)
(-0 -0 3.37289e-18)
(-0 -0 -1.12994e-18)
(-0 -0 -1.12317e-18)
(-0 -0 -1.12655e-18)
(-0 -0 2.2548e-18)
(-0 -0 -1.12655e-18)
(-0 -0 -3.39491e-18)
(-0 -0 2.26158e-18)
(-0 -0 1.12994e-18)
(-0 -0 1.13502e-18)
(-0 -0 -1.13164e-18)
(-0 -0 -2.27174e-18)
(-0 -0 0)
(-0 -0 1.13502e-18)
(-0 -0 -1.13841e-18)
(-0 -0 3.42032e-18)
(-0 -0 -1.14349e-18)
(-0 -0 1.14519e-18)
(-0 -0 -2.28868e-18)
(-0 -0 -1.14519e-18)
(-0 -0 -1.15027e-18)
(-0 -0 1.14688e-18)
(-0 -0 1.14688e-18)
(-0 -0 -2.29715e-18)
(-0 -0 2.29546e-18)
(-0 -0 3.38813e-21)
(-0 -0 1.14688e-18)
(-0 -0 -1.15196e-18)
(-0 -0 -1.15535e-18)
(-0 -0 4.61802e-18)
(-0 -0 -2.31071e-18)
(-0 -0 -2.31409e-18)
(-0 -0 4.63158e-18)
(-0 -0 -2.31748e-18)
(-0 -0 -1.16213e-18)
(-0 -0 -3.38813e-21)
(-0 -0 -1.69407e-21)
(-0 -0 -1.69407e-21)
(-0 -0 1.16721e-18)
(-0 -0 0)
(-0 -0 -2.33103e-18)
(-0 -0 1.16891e-18)
(-0 -0 1.16721e-18)
(-0 -0 1.16552e-18)
(-0 -0 -2.34798e-18)
(-0 -0 1.17229e-18)
(-0 -0 -1.16891e-18)
(-0 -0 1.17399e-18)
(-0 -0 -2.35136e-18)
(-0 -0 2.35814e-18)
(-0 -0 1.17568e-18)
(-0 -0 -4.71289e-18)
(-0 -0 2.36153e-18)
(-0 -0 -1.18246e-18)
(-0 -0 3.54399e-18)
(-0 -0 -3.55246e-18)
(-0 -0 1.18585e-18)
(-0 -0 -1.18246e-18)
(-0 -0 -1.18415e-18)
(-0 -0 5.94109e-18)
(-0 -0 -3.56601e-18)
(-0 -0 2.38186e-18)
(-0 -0 -2.38186e-18)
(-0 -0 -1.19432e-18)
(-0 -0 3.58295e-18)
(-0 -0 -1.19601e-18)
(-0 -0 -2.39033e-18)
(-0 -0 2.38863e-18)
(-0 -0 1.20109e-18)
(-0 -0 -4.79929e-18)
(-0 -0 4.80606e-18)
(-0 -0 1.69407e-21)
(-0 -0 -4.80776e-18)
(-0 -0 6.01563e-18)
(-0 -0 -3.61514e-18)
(-0 -0 -1.20787e-18)
(-0 -0 2.41235e-18)
(-0 -0 3.62191e-18)
(-0 -0 -6.04951e-18)
(-0 -0 2.41743e-18)
(-0 -0 -1.21295e-18)
(-0 -0 -1.20956e-18)
(-0 -0 -1.20956e-18)
(-0 -0 1.21803e-18)
(-0 -0 -1.69407e-21)
(-0 -0 2.43437e-18)
(-0 -0 -3.65241e-18)
(-0 -0 1.22142e-18)
(-0 -0 1.22312e-18)
(-0 -0 3.38813e-21)
(-0 -0 1.22312e-18)
(-0 -0 -1.22481e-18)
(-0 -0 1.69407e-21)
(-0 -0 1.2282e-18)
(-0 -0 -2.45301e-18)
(-0 -0 -1.22989e-18)
(-0 -0 3.68798e-18)
(-0 -0 -1.2265e-18)
(-0 -0 0)
(-0 -0 1.23159e-18)
(-0 -0 0)
(-0 -0 1.23497e-18)
(-0 -0 -3.71e-18)
(-0 -0 3.71509e-18)
(-0 -0 -1.23667e-18)
(-0 -0 2.47842e-18)
(-0 -0 -3.72186e-18)
(-0 -0 3.72525e-18)
(-0 -0 -2.48689e-18)
(-0 -0 1.24175e-18)
(-0 -0 -2.49197e-18)
(-0 -0 1.25022e-18)
(-0 -0 -1.24514e-18)
(-0 -0 -1.24683e-18)
(-0 -0 3.38813e-21)
(-0 -0 2.50383e-18)
(-0 -0 -1.25361e-18)
(-0 -0 3.76591e-18)
(-0 -0 -1.257e-18)
(-0 -0 0)
(-0 -0 -6.28668e-18)
(-0 -0 7.55723e-18)
(-0 -0 -3.77946e-18)
(-0 -0 2.52246e-18)
(-0 -0 -2.52416e-18)
(-0 -0 0)
(-0 -0 -2.52924e-18)
(-0 -0 3.7981e-18)
(-0 -0 -1.26716e-18)
(-0 -0 -1.26547e-18)
(-0 -0 1.27055e-18)
(-0 -0 1.27394e-18)
(-0 -0 -1.27394e-18)
(-0 -0 -3.81504e-18)
(-0 -0 5.09575e-18)
(-0 -0 -2.55296e-18)
(-0 -0 -3.38813e-21)
(-0 -0 3.83198e-18)
(-0 -0 -2.55635e-18)
(-0 -0 -2.56482e-18)
(-0 -0 1.28241e-18)
(-0 -0 3.84892e-18)
(-0 -0 -1.2841e-18)
(-0 -0 1.2858e-18)
(-0 -0 -2.57498e-18)
(-0 -0 0)
(-0 -0 1.28918e-18)
(-0 -0 -1.28918e-18)
(-0 -0 1.29257e-18)
(-0 -0 -1.69407e-21)
(-0 -0 -1.29596e-18)
(-0 -0 -1.69407e-21)
(-0 -0 1.29427e-18)
(-0 -0 -1.29257e-18)
(-0 -0 -1.69407e-21)
(-0 -0 0)
(-0 -0 -3.89974e-18)
(-0 -0 5.21095e-18)
(-0 -0 -1.30612e-18)
(-0 -0 -2.60717e-18)
(-0 -0 2.61056e-18)
(-0 -0 1.69407e-21)
(-0 -0 1.30782e-18)
(-0 -0 -3.38813e-21)
(-0 -0 -2.61733e-18)
(-0 -0 -2.62072e-18)
(-0 -0 3.93701e-18)
(-0 -0 1.3146e-18)
(-0 -0 -5.25838e-18)
(-0 -0 3.95056e-18)
(-0 -0 -1.31968e-18)
(-0 -0 1.31629e-18)
(-0 -0 -2.63766e-18)
(-0 -0 5.28379e-18)
(-0 -0 -2.64105e-18)
(-0 -0 -1.32137e-18)
(-0 -0 3.97936e-18)
(-0 -0 -1.69407e-21)
(-0 -0 1.69407e-21)
(-0 -0 -5.31937e-18)
(-0 -0 1.32984e-18)
(-0 -0 -1.69407e-21)
(-0 -0 3.998e-18)
(-0 -0 -4.00138e-18)
(-0 -0 1.33662e-18)
(-0 -0 -2.67662e-18)
(-0 -0 1.33831e-18)
(-0 -0 1.3417e-18)
(-0 -0 -1.33323e-18)
(-0 -0 5.36341e-18)
(-0 -0 -2.68848e-18)
(-0 -0 1.3417e-18)
(-0 -0 -4.03865e-18)
(-0 -0 1.34848e-18)
(-0 -0 -1.69407e-21)
(-0 -0 1.34848e-18)
(-0 -0 0)
(-0 -0 -2.70542e-18)
(-0 -0 1.35525e-18)
(-0 -0 5.41932e-18)
(-0 -0 -5.4227e-18)
(-0 -0 -1.69407e-21)
(-0 -0 -3.38813e-21)
(-0 -0 -1.36372e-18)
(-0 -0 4.07931e-18)
(-0 -0 -2.72575e-18)
(-0 -0 1.36033e-18)
(-0 -0 -1.69407e-21)
(-0 -0 2.73422e-18)
(-0 -0 -5.47014e-18)
(-0 -0 1.36881e-18)
(-0 -0 2.7393e-18)
(-0 -0 -1.3705e-18)
(-0 -0 -2.74608e-18)
(-0 -0 1.37389e-18)
(-0 -0 1.69407e-21)
(-0 -0 0)
(-0 -0 -1.38066e-18)
(-0 -0 1.37389e-18)
(-0 -0 2.76133e-18)
(-0 -0 -1.69407e-21)
(-0 -0 -5.52943e-18)
(-0 -0 1.38236e-18)
(-0 -0 1.38575e-18)
(-0 -0 4.15554e-18)
(-0 -0 -1.39252e-18)
(-0 -0 -4.1674e-18)
(-0 -0 -1.38913e-18)
(-0 -0 6.95922e-18)
(-0 -0 -5.57009e-18)
(-0 -0 2.79182e-18)
(-0 -0 -4.18604e-18)
(-0 -0 4.19281e-18)
(-0 -0 1.39591e-18)
(-0 -0 -5.59381e-18)
(-0 -0 7.00157e-18)
(-0 -0 -4.20806e-18)
(-0 -0 -2.80368e-18)
(-0 -0 2.81046e-18)
(-0 -0 1.40607e-18)
(-0 -0 -4.22331e-18)
(-0 -0 5.63108e-18)
(-0 -0 -1.40777e-18)
(-0 -0 1.41116e-18)
(-0 -0 -1.69407e-21)
(-0 -0 -5.65818e-18)
(-0 -0 5.65987e-18)
(-0 -0 0)
(-0 -0 -2.83078e-18)
(-0 -0 -1.41963e-18)
(-0 -0 2.84264e-18)
(-0 -0 -2.84603e-18)
(-0 -0 -1.41963e-18)
(-0 -0 4.27582e-18)
(-0 -0 1.69407e-21)
(-0 -0 1.4281e-18)
(-0 -0 -1.43149e-18)
(-0 -0 -2.85958e-18)
(-0 -0 -1.43149e-18)
(-0 -0 1.43149e-18)
(-0 -0 -1.69407e-21)
(-0 -0 4.3114e-18)
(-0 -0 -2.87144e-18)
(-0 -0 1.43826e-18)
(-0 -0 -1.44334e-18)
(-0 -0 1.43996e-18)
(-0 -0 1.69407e-21)
(-0 -0 -1.69407e-21)
(-0 -0 -2.88838e-18)
(-0 -0 -3.38813e-21)
(-0 -0 2.89346e-18)
(-0 -0 1.69407e-21)
(-0 -0 -1.45181e-18)
(-0 -0 -1.44673e-18)
(-0 -0 4.35544e-18)
(-0 -0 -1.4552e-18)
(-0 -0 1.69407e-21)
(-0 -0 2.91549e-18)
(-0 -0 1.69407e-21)
(-0 -0 -7.29465e-18)
(-0 -0 1.46367e-18)
(-0 -0 5.84961e-18)
(-0 -0 -2.92904e-18)
(-0 -0 -3.38813e-21)
(-0 -0 -2.93412e-18)
(-0 -0 -5.0822e-21)
(-0 -0 2.93582e-18)
(-0 -0 -4.40965e-18)
(-0 -0 5.89027e-18)
(-0 -0 -4.41643e-18)
(-0 -0 1.69407e-21)
(-0 -0 0)
(-0 -0 4.43337e-18)
(-0 -0 1.69407e-21)
(-0 -0 -5.92245e-18)
(-0 -0 1.484e-18)
(-0 -0 0)
(-0 -0 4.45201e-18)
(-0 -0 1.69407e-21)
(-0 -0 -4.46556e-18)
(-0 -0 4.46556e-18)
(-0 -0 -4.47064e-18)
(-0 -0 4.47742e-18)
(-0 -0 -4.47572e-18)
(-0 -0 -3.38813e-21)
(-0 -0 2.99511e-18)
(-0 -0 0)
(-0 -0 -3.38813e-21)
(-0 -0 2.9985e-18)
(-0 -0 -4.49944e-18)
(-0 -0 3.00527e-18)
(-0 -0 -3.00866e-18)
(-0 -0 3.01544e-18)
(-0 -0 -3.01205e-18)
(-0 -0 4.52316e-18)
(-0 -0 -6.03765e-18)
(-0 -0 1.51111e-18)
(-0 -0 4.54348e-18)
(-0 -0 -6.05798e-18)
(-0 -0 4.55026e-18)
(-0 -0 -4.55026e-18)
(-0 -0 3.03238e-18)
(-0 -0 0)
(-0 -0 -1.52466e-18)
(-0 -0 -1.52466e-18)
(-0 -0 -3.04593e-18)
(-0 -0 6.10203e-18)
(-0 -0 -3.05271e-18)
(-0 -0 4.58753e-18)
(-0 -0 -7.64363e-18)
(-0 -0 6.12574e-18)
(-0 -0 -4.60108e-18)
(-0 -0 7.66395e-18)
(-0 -0 -6.14268e-18)
(-0 -0 1.53482e-18)
(-0 -0 4.61125e-18)
(-0 -0 -4.62141e-18)
(-0 -0 4.62141e-18)
(-0 -0 -4.62819e-18)
(-0 -0 0)
(-0 -0 1.54499e-18)
(-0 -0 0)
(-0 -0 -3.09336e-18)
(-0 -0 4.64513e-18)
(-0 -0 1.54499e-18)
(-0 -0 -1.55176e-18)
(-0 -0 -1.54838e-18)
(-0 -0 0)
(-0 -0 -1.55515e-18)
(-0 -0 1.55854e-18)
(-0 -0 -3.12047e-18)
(-0 -0 4.67901e-18)
(-0 -0 -6.2511e-18)
(-0 -0 7.8232e-18)
(-0 -0 -1.56532e-18)
(-0 -0 0)
(-0 -0 -4.71289e-18)
(-0 -0 3.38813e-21)
(-0 -0 4.71628e-18)
(-0 -0 -4.71967e-18)
(-0 -0 4.71967e-18)
(-0 -0 1.57548e-18)
(-0 -0 -1.57887e-18)
(-0 -0 -3.15435e-18)
(-0 -0 -3.38813e-21)
(-0 -0 -3.38813e-21)
(-0 -0 4.75355e-18)
(-0 -0 -7.92145e-18)
(-0 -0 6.34597e-18)
(-0 -0 3.38813e-21)
(-0 -0 1.59242e-18)
(-0 -0 -3.18146e-18)
(-0 -0 1.59581e-18)
(-0 -0 0)
(-0 -0 -3.19162e-18)
(-0 -0 1.5992e-18)
(-0 -0 0)
(-0 -0 -1.5992e-18)
(-0 -0 3.20856e-18)
(-0 -0 -3.20856e-18)
(-0 -0 3.21195e-18)
(-0 -0 -4.8247e-18)
(-0 -0 -3.21873e-18)
(-0 -0 6.43745e-18)
(-0 -0 -3.21873e-18)
(-0 -0 6.44761e-18)
(-0 -0 -3.2255e-18)
(-0 -0 -1.61275e-18)
(-0 -0 -3.23228e-18)
(-0 -0 3.23567e-18)
(-0 -0 1.61953e-18)
(-0 -0 3.38813e-21)
(-0 -0 -4.86536e-18)
(-0 -0 6.50182e-18)
(-0 -0 1.63308e-18)
(-0 -0 -6.50521e-18)
(-0 -0 3.26277e-18)
(-0 -0 -3.26277e-18)
(-0 -0 3.26277e-18)
(-0 -0 -1.63308e-18)
(-0 -0 0)
(-0 -0 1.63308e-18)
(-0 -0 0)
(-0 -0 1.63647e-18)
(-0 -0 -4.92296e-18)
(-0 -0 1.64324e-18)
(-0 -0 3.2831e-18)
(-0 -0 -3.38813e-21)
(-0 -0 -3.29665e-18)
(-0 -0 -1.65002e-18)
(-0 -0 3.29665e-18)
(-0 -0 -3.30343e-18)
(-0 -0 3.30343e-18)
(-0 -0 1.6568e-18)
(-0 -0 0)
(-0 -0 -1.65341e-18)
(-0 -0 -3.32037e-18)
(-0 -0 3.32376e-18)
(-0 -0 -3.32715e-18)
(-0 -0 6.66107e-18)
(-0 -0 -3.33053e-18)
(-0 -0 -1.67035e-18)
(-0 -0 -5.00766e-18)
(-0 -0 1.00187e-17)
(-0 -0 0)
(-0 -0 -5.02121e-18)
(-0 -0 1.67713e-18)
(-0 -0 -3.38813e-21)
(-0 -0 0)
(-0 -0 0)
(-0 -0 -3.38813e-21)
(-0 -0 -3.38813e-21)
(-0 -0 0)
(-0 -0 3.38813e-21)
(-0 -0 -3.37797e-18)
(-0 -0 3.38813e-21)
(-0 -0 3.38136e-18)
(-0 -0 -3.38474e-18)
(-0 -0 1.69745e-18)
(-0 -0 3.39491e-18)
(-0 -0 -3.39152e-18)
(-0 -0 1.70084e-18)
(-0 -0 -3.3983e-18)
(-0 -0 6.81014e-18)
(-0 -0 -6.81353e-18)
(-0 -0 3.40507e-18)
(-0 -0 -3.38813e-21)
(-0 -0 -3.41524e-18)
(-0 -0 3.41862e-18)
(-0 -0 -3.4254e-18)
(-0 -0 3.38813e-21)
(-0 -0 3.38813e-21)
(-0 -0 3.43557e-18)
(-0 -0 0)
(-0 -0 -3.43557e-18)
(-0 -0 0)
(-0 -0 3.44573e-18)
(-0 -0 -3.38813e-21)
(-0 -0 3.38813e-21)
(-0 -0 3.45928e-18)
(-0 -0 -3.45589e-18)
(-0 -0 -3.46606e-18)
(-0 -0 6.92873e-18)
(-0 -0 -3.46606e-18)
(-0 -0 3.38813e-21)
(-0 -0 -3.38813e-21)
(-0 -0 -3.47284e-18)
(-0 -0 -3.38813e-21)
(-0 -0 0)
(-0 -0 6.97616e-18)
(-0 -0 -3.49316e-18)
(-0 -0 0)
(-0 -0 3.38813e-21)
(-0 -0 6.77626e-21)
(-0 -0 0)
(-0 -0 -3.5101e-18)
(-0 -0 0)
(-0 -0 3.51349e-18)
(-0 -0 -3.38813e-21)
(-0 -0 -3.38813e-21)
(-0 -0 0)
(-0 -0 -3.38813e-21)
(-0 -0 -3.53382e-18)
(-0 -0 3.53043e-18)
(-0 -0 3.38813e-21)
(-0 -0 -3.38813e-21)
(-0 -0 -3.54399e-18)
(-0 -0 7.09475e-18)
(-0 -0 -3.55076e-18)
(-0 -0 -3.55076e-18)
(-0 -0 7.11169e-18)
(-0 -0 -3.55754e-18)
(-0 -0 -3.56093e-18)
(-0 -0 0)
(-0 -0 3.38813e-21)
(-0 -0 3.57109e-18)
(-0 -0 0)
(-0 -0 -3.57787e-18)
(-0 -0 0)
(-0 -0 3.59481e-18)
(-0 -0 -3.59142e-18)
(-0 -0 3.59142e-18)
(-0 -0 0)
(-0 -0 0)
(-0 -0 3.38813e-21)
(-0 -0 -3.60497e-18)
(-0 -0 3.61175e-18)
(-0 -0 -3.61514e-18)
(-0 -0 3.61852e-18)
(-0 -0 -3.62191e-18)
(-0 -0 0)
(-0 -0 7.2506e-18)
(-0 -0 -3.63208e-18)
(-0 -0 -3.63208e-18)
(-0 -0 3.63547e-18)
(-0 -0 6.77626e-21)
(-0 -0 -3.64563e-18)
(-0 -0 7.29804e-18)
(-0 -0 -3.65241e-18)
(-0 -0 -3.65579e-18)
(-0 -0 3.66257e-18)
(-0 -0 3.66257e-18)
(-0 -0 -3.66935e-18)
(-0 -0 0)
(-0 -0 -3.67273e-18)
(-0 -0 0)
(-0 -0 3.67612e-18)
(-0 -0 3.6829e-18)
(-0 -0 -3.38813e-21)
(-0 -0 -7.37596e-18)
(-0 -0 7.38274e-18)
(-0 -0 -7.39629e-18)
(-0 -0 -6.77626e-21)
(-0 -0 3.69984e-18)
(-0 -0 -3.70662e-18)
(-0 -0 0)
(-0 -0 3.70662e-18)
(-0 -0 0)
(-0 -0 0)
(-0 -0 0)
(-0 -0 -3.72356e-18)
(-0 -0 3.72694e-18)
(-0 -0 -3.73711e-18)
(-0 -0 -3.38813e-21)
(-0 -0 0)
(-0 -0 3.38813e-21)
(-0 -0 3.74389e-18)
(-0 -0 0)
(-0 -0 -3.38813e-21)
(-0 -0 3.76421e-18)
(-0 -0 -7.52165e-18)
(-0 -0 7.53521e-18)
(-0 -0 -7.54537e-18)
(-0 -0 0)
(-0 -0 7.54876e-18)
(-0 -0 -7.55892e-18)
(-0 -0 3.79132e-18)
(-0 -0 -3.78793e-18)
(-0 -0 -3.38813e-21)
(-0 -0 3.7981e-18)
(-0 -0 -3.80487e-18)
(-0 -0 3.7981e-18)
(-0 -0 0)
(-0 -0 -3.81165e-18)
(-0 -0 7.61991e-18)
(-0 -0 -7.63346e-18)
(-0 -0 3.81842e-18)
(-0 -0 -3.82859e-18)
(-0 -0 3.83198e-18)
(-0 -0 0)
(-0 -0 0)
(-0 -0 -3.83198e-18)
(-0 -0 -3.38813e-21)
(-0 -0 3.84214e-18)
(-0 -0 -3.84892e-18)
(-0 -0 3.84892e-18)
(-0 -0 -3.85908e-18)
(-0 -0 3.85908e-18)
(-0 -0 0)
(-0 -0 -3.86925e-18)
(-0 -0 3.86925e-18)
(-0 -0 -3.86586e-18)
(-0 -0 3.87941e-18)
(-0 -0 0)
(-0 -0 -3.88619e-18)
(-0 -0 3.88619e-18)
(-0 -0 0)
(-0 -0 0)
(-0 -0 3.38813e-21)
(-0 -0 0)
(-0 -0 -3.90313e-18)
(-0 -0 0)
(-0 -0 3.9099e-18)
(-0 -0 0)
(-0 -0 -3.38813e-21)
(-0 -0 -3.92684e-18)
(-0 -0 3.92346e-18)
(-0 -0 3.38813e-21)
(-0 -0 -3.93701e-18)
(-0 -0 0)
(-0 -0 6.77626e-21)
(-0 -0 3.94717e-18)
(-0 -0 -3.95056e-18)
(-0 -0 3.38813e-21)
(-0 -0 -3.38813e-21)
(-0 -0 0)
(-0 -0 3.96411e-18)
(-0 -0 -3.96411e-18)
(-0 -0 3.97428e-18)
(-0 -0 -3.97428e-18)
(-0 -0 -3.38813e-21)
(-0 -0 3.38813e-21)
(-0 -0 -3.38813e-21)
(-0 -0 3.38813e-21)
(-0 -0 3.38813e-21)
(-0 -0 0)
(-0 -0 4.00138e-18)
(-0 -0 -3.38813e-21)
(-0 -0 -3.38813e-21)
(-0 -0 4.01155e-18)
(-0 -0 -4.01832e-18)
(-0 -0 0)
(-0 -0 -3.38813e-21)
(-0 -0 3.38813e-21)
(-0 -0 3.38813e-21)
(-0 -0 -4.04204e-18)
(-0 -0 4.03865e-18)
(-0 -0 4.04543e-18)
(-0 -0 -4.04882e-18)
(-0 -0 3.38813e-21)
(-0 -0 0)
(-0 -0 3.38813e-21)
(-0 -0 0)
(-0 -0 -4.07253e-18)
(-0 -0 8.1349e-18)
(-0 -0 -8.15523e-18)
(-0 -0 4.07253e-18)
(-0 -0 3.38813e-21)
(-0 -0 3.38813e-21)
(-0 -0 3.38813e-21)
(-0 -0 -4.08948e-18)
(-0 -0 4.09625e-18)
(-0 -0 -4.09625e-18)
(-0 -0 4.10303e-18)
(-0 -0 0)
(-0 -0 4.1098e-18)
(-0 -0 -4.11997e-18)
(-0 -0 -4.11997e-18)
(-0 -0 4.12336e-18)
(-0 -0 4.12674e-18)
(-0 -0 -4.13352e-18)
(-0 -0 3.38813e-21)
(-0 -0 3.38813e-21)
(-0 -0 -4.14369e-18)
(-0 -0 0)
(-0 -0 4.15046e-18)
(-0 -0 -4.15046e-18)
(-0 -0 0)
(-0 -0 4.16401e-18)
(-0 -0 -4.1674e-18)
(-0 -0 0)
(-0 -0 0)
(-0 -0 -3.38813e-21)
(-0 -0 0)
(-0 -0 4.18095e-18)
(-0 -0 -4.19112e-18)
(-0 -0 3.38813e-21)
(-0 -0 4.20467e-18)
(-0 -0 -4.1979e-18)
(-0 -0 4.20467e-18)
(-0 -0 0)
(-0 -0 -4.21145e-18)
(-0 -0 3.38813e-21)
(-0 -0 -3.38813e-21)
(-0 -0 4.225e-18)
(-0 -0 -6.77626e-21)
(-0 -0 0)
(-0 -0 -3.38813e-21)
(-0 -0 3.38813e-21)
(-0 -0 -4.24533e-18)
(-0 -0 4.24872e-18)
(-0 -0 0)
(-0 -0 3.38813e-21)
(-0 -0 0)
(-0 -0 -3.38813e-21)
(-0 -0 -4.26905e-18)
(-0 -0 4.27243e-18)
(-0 -0 3.38813e-21)
(-0 -0 -4.27921e-18)
(-0 -0 4.28599e-18)
(-0 -0 -3.38813e-21)
(-0 -0 -3.38813e-21)
(-0 -0 3.38813e-21)
(-0 -0 -4.30293e-18)
(-0 -0 0)
(-0 -0 4.30632e-18)
(-0 -0 0)
(-0 -0 6.77626e-21)
(-0 -0 -4.32326e-18)
(-0 -0 4.32326e-18)
(-0 -0 -6.77626e-21)
(-0 -0 -4.33681e-18)
(-0 -0 4.33681e-18)
(-0 -0 3.38813e-21)
(-0 -0 0)
(-0 -0 -4.35714e-18)
(-0 -0 4.35375e-18)
(-0 -0 0)
(-0 -0 -4.36053e-18)
(-0 -0 4.36391e-18)
(-0 -0 3.38813e-21)
(-0 -0 -3.38813e-21)
(-0 -0 -4.37747e-18)
(-0 -0 0)
(-0 -0 0)
(-0 -0 0)
(-0 -0 4.39441e-18)
(-0 -0 -4.40118e-18)
(-0 -0 0)
(-0 -0 3.38813e-21)
(-0 -0 -3.38813e-21)
(-0 -0 0)
(-0 -0 4.41812e-18)
(-0 -0 -4.4249e-18)
(-0 -0 4.42829e-18)
(-0 -0 -4.42829e-18)
(-0 -0 4.42829e-18)
(-0 -0 0)
(-0 -0 -4.45201e-18)
(-0 -0 0)
(-0 -0 0)
(-0 -0 4.45539e-18)
(-0 -0 -4.46217e-18)
(-0 -0 4.46556e-18)
(-0 -0 0)
(-0 -0 -3.38813e-21)
(-0 -0 0)
(-0 -0 0)
(-0 -0 -3.38813e-21)
(-0 -0 3.38813e-21)
(-0 -0 -3.38813e-21)
(-0 -0 3.38813e-21)
(-0 -0 -4.50622e-18)
(-0 -0 -3.38813e-21)
(-0 -0 4.51299e-18)
(-0 -0 -4.51638e-18)
(-0 -0 4.51638e-18)
(-0 -0 -4.52654e-18)
(-0 -0 4.52993e-18)
(-0 -0 -4.53332e-18)
(-0 -0 4.53332e-18)
(-0 -0 -4.5401e-18)
(-0 -0 3.38813e-21)
(-0 -0 4.55365e-18)
(-0 -0 0)
(-0 -0 -4.55704e-18)
(-0 -0 0)
(-0 -0 1.01644e-20)
(-0 -0 4.57059e-18)
(-0 -0 0)
(-0 -0 -3.38813e-21)
(-0 -0 0)
(-0 -0 -4.59092e-18)
(-0 -0 0)
(-0 -0 4.60108e-18)
(-0 -0 3.38813e-21)
(-0 -0 3.38813e-21)
(-0 -0 0)
(-0 -0 -4.61464e-18)
(-0 -0 4.62141e-18)
(-0 -0 3.38813e-21)
(-0 -0 -4.62819e-18)
(-0 -0 4.63496e-18)
(-0 -0 6.77626e-21)
(-0 -0 -3.38813e-21)
(-0 -0 0)
(-0 -0 0)
(-0 -0 0)
(-0 -0 -4.65529e-18)
(-0 -0 3.38813e-21)
(-0 -0 0)
(-0 -0 4.66546e-18)
(-0 -0 0)
(-0 -0 -3.38813e-21)
(-0 -0 0)
(-0 -0 3.38813e-21)
(-0 -0 0)
(-0 -0 -4.69595e-18)
(-0 -0 4.70612e-18)
(-0 -0 -4.70612e-18)
(-0 -0 4.71289e-18)
(-0 -0 3.38813e-21)
(-0 -0 -3.38813e-21)
(-0 -0 0)
(-0 -0 0)
(-0 -0 -4.74e-18)
(-0 -0 4.74e-18)
(-0 -0 3.38813e-21)
(-0 -0 -3.38813e-21)
(-0 -0 -3.38813e-21)
(-0 -0 -4.76033e-18)
(-0 -0 3.38813e-21)
(-0 -0 0)
(-0 -0 4.77049e-18)
(-0 -0 -3.38813e-21)
(-0 -0 -3.38813e-21)
(-0 -0 6.77626e-21)
(-0 -0 0)
(-0 -0 -4.79082e-18)
(-0 -0 4.79421e-18)
(-0 -0 -3.38813e-21)
(-0 -0 3.38813e-21)
(-0 -0 -4.80437e-18)
(-0 -0 3.38813e-21)
(-0 -0 4.8247e-18)
(-0 -0 -6.77626e-21)
(-0 -0 -3.38813e-21)
(-0 -0 0)
(-0 -0 0)
(-0 -0 -4.83825e-18)
(-0 -0 4.84842e-18)
(-0 -0 -4.8518e-18)
(-0 -0 4.85519e-18)
(-0 -0 0)
(-0 -0 0)
(-0 -0 0)
(-0 -0 0)
(-0 -0 0)
(-0 -0 -4.8823e-18)
(-0 -0 4.88907e-18)
(-0 -0 3.38813e-21)
(-0 -0 -3.38813e-21)
(-0 -0 -6.77626e-21)
(-0 -0 3.38813e-21)
(-0 -0 -4.90601e-18)
(-0 -0 4.91279e-18)
(-0 -0 -4.91618e-18)
(-0 -0 3.38813e-21)
(-0 -0 4.91957e-18)
(-0 -0 3.38813e-21)
(-0 -0 0)
(-0 -0 0)
(-0 -0 3.38813e-21)
(-0 -0 0)
(-0 -0 0)
(-0 -0 0)
(-0 -0 3.38813e-21)
(-0 -0 0)
(-0 -0 0)
(-0 -0 6.77626e-21)
(-0 -0 -1.01644e-20)
(-0 -0 -4.98733e-18)
(-0 -0 -3.38813e-21)
(-0 -0 3.38813e-21)
(-0 -0 4.99411e-18)
(-0 -0 3.38813e-21)
(-0 -0 0)
(-0 -0 3.38813e-21)
(-0 -0 3.38813e-21)
(-0 -0 -5.0246e-18)
(-0 -0 0)
(-0 -0 -3.38813e-21)
(-0 -0 5.03815e-18)
(-0 -0 -5.04154e-18)
(-0 -0 3.38813e-21)
(-0 -0 3.38813e-21)
(-0 -0 -3.38813e-21)
(-0 -0 5.06187e-18)
(-0 -0 0)
(-0 -0 -5.06865e-18)
(-0 -0 3.38813e-21)
(-0 -0 5.08559e-18)
(-0 -0 3.38813e-21)
(-0 -0 -5.08559e-18)
(-0 -0 5.09575e-18)
(-0 -0 0)
(-0 -0 -5.1093e-18)
(-0 -0 5.11269e-18)
(-0 -0 -5.11269e-18)
(-0 -0 5.11608e-18)
(-0 -0 0)
(-0 -0 0)
(-0 -0 0)
(-0 -0 -3.38813e-21)
(-0 -0 -5.13641e-18)
(-0 -0 5.14996e-18)
(-0 -0 0)
(-0 -0 0)
(-0 -0 -3.38813e-21)
(-0 -0 0)
(-0 -0 -5.17368e-18)
(-0 -0 5.17707e-18)
(-0 -0 3.38813e-21)
(-0 -0 -5.18723e-18)
(-0 -0 -3.38813e-21)
(-0 -0 5.19739e-18)
(-0 -0 3.38813e-21)
(-0 -0 0)
(-0 -0 3.38813e-21)
(-0 -0 0)
(-0 -0 -5.22111e-18)
(-0 -0 0)
(-0 -0 5.23466e-18)
(-0 -0 -5.23466e-18)
(-0 -0 3.38813e-21)
(-0 -0 5.24822e-18)
(-0 -0 -5.24822e-18)
(-0 -0 0)
(-0 -0 5.25838e-18)
(-0 -0 -3.38813e-21)
(-0 -0 0)
(-0 -0 3.38813e-21)
(-0 -0 -3.38813e-21)
(-0 -0 3.38813e-21)
(-0 -0 0)
(-0 -0 0)
(-0 -0 0)
(-0 -0 -5.29904e-18)
(-0 -0 5.30243e-18)
(-0 -0 3.38813e-21)
(-0 -0 3.38813e-21)
(-0 -0 0)
(-0 -0 0)
(-0 -0 0)
(-0 -0 -3.38813e-21)
(-0 -0 -5.33631e-18)
(-0 -0 5.35664e-18)
(-0 -0 6.77626e-21)
(-0 -0 0)
(-0 -0 -5.3668e-18)
(-0 -0 6.77626e-21)
(-0 -0 0)
(-0 -0 -3.38813e-21)
(-0 -0 -6.77626e-21)
(-0 -0 5.39729e-18)
(-0 -0 0)
(-0 -0 0)
(-0 -0 0)
(-0 -0 0)
(-0 -0 0)
(-0 -0 0)
(-0 -0 -3.38813e-21)
(-0 -0 -3.38813e-21)
(-0 -0 -5.43456e-18)
(-0 -0 -3.38813e-21)
(-0 -0 0)
(-0 -0 -3.38813e-21)
(-0 -0 5.45489e-18)
(-0 -0 0)
(-0 -0 0)
(-0 -0 0)
(-0 -0 -5.47861e-18)
(-0 -0 5.482e-18)
(-0 -0 3.38813e-21)
(-0 -0 3.38813e-21)
(-0 -0 6.77626e-21)
(-0 -0 0)
(-0 -0 0)
(-0 -0 -5.5091e-18)
(-0 -0 5.51249e-18)
(-0 -0 -3.38813e-21)
(-0 -0 0)
(-0 -0 0)
(-0 -0 0)
(-0 -0 -5.54298e-18)
(-0 -0 5.54976e-18)
(-0 -0 -5.55654e-18)
(-0 -0 5.55654e-18)
(-0 -0 -5.57009e-18)
(-0 -0 5.57009e-18)
(-0 -0 -3.38813e-21)
(-0 -0 -5.58703e-18)
(-0 -0 5.58364e-18)
(-0 -0 3.38813e-21)
(-0 -0 0)
(-0 -0 -3.38813e-21)
(-0 -0 -5.60397e-18)
(-0 -0 5.60736e-18)
(-0 -0 -5.61752e-18)
(-0 -0 5.62091e-18)