/*--------------------------------*- C++ -*----------------------------------*\
| =========                 |                                                 |
| \\      /  F ield         | OpenFOAM: The Open Source CFD Toolbox           |
|  \\    /   O peration     | Version:  v2012                                 |
|   \\  /    A nd           | Website:  www.openfoam.com                      |
|    \\/     M anipulation  |                                                 |
\*---------------------------------------------------------------------------*/
FoamFile
{
    version     2.0;
    format      ascii;
    class       volScalarField;
    location    "48";
    object      wa;
}
// * * * * * * * * * * * * * * * * * * * * * * * * * * * * * * * * * * * * * //

dimensions      [0 0 0 0 0 0 0];


internalField   nonuniform List<scalar> 
3200
(
0.949926
0.949778
0.94963
0.949481
0.949333
0.949184
0.949034
0.948884
0.948734
0.948584
0.948433
0.948282
0.948131
0.94798
0.947828
0.947676
0.947523
0.947371
0.947218
0.947064
0.946911
0.946757
0.946602
0.946448
0.946293
0.946138
0.945982
0.945827
0.945671
0.945514
0.945358
0.945201
0.945043
0.944886
0.944728
0.94457
0.944411
0.944252
0.944093
0.943934
0.943774
0.943614
0.943454
0.943293
0.943132
0.942971
0.94281
0.942648
0.942486
0.942323
0.942161
0.941997
0.941834
0.94167
0.941506
0.941342
0.941178
0.941013
0.940847
0.940682
0.940516
0.94035
0.940184
0.940017
0.93985
0.939682
0.939515
0.939347
0.939179
0.93901
0.938841
0.938672
0.938502
0.938332
0.938162
0.937992
0.937821
0.93765
0.937479
0.937307
0.937135
0.936963
0.93679
0.936617
0.936444
0.93627
0.936096
0.935922
0.935748
0.935573
0.935398
0.935222
0.935047
0.934871
0.934694
0.934518
0.934341
0.934163
0.933986
0.933808
0.93363
0.933451
0.933272
0.933093
0.932914
0.932734
0.932554
0.932373
0.932193
0.932012
0.93183
0.931649
0.931467
0.931284
0.931102
0.930919
0.930736
0.930552
0.930368
0.930184
0.929999
0.929815
0.92963
0.929444
0.929258
0.929072
0.928886
0.928699
0.928512
0.928325
0.928137
0.927949
0.927761
0.927573
0.927384
0.927194
0.927005
0.926815
0.926625
0.926434
0.926244
0.926053
0.925861
0.925669
0.925477
0.925285
0.925092
0.924899
0.924706
0.924512
0.924318
0.924124
0.92393
0.923735
0.923539
0.923344
0.923148
0.922952
0.922755
0.922559
0.922362
0.922164
0.921966
0.921768
0.92157
0.921371
0.921172
0.920973
0.920773
0.920573
0.920373
0.920173
0.919972
0.91977
0.919569
0.919367
0.919165
0.918962
0.91876
0.918556
0.918353
0.918149
0.917945
0.917741
0.917536
0.917331
0.917126
0.91692
0.916714
0.916508
0.916301
0.916094
0.915887
0.915679
0.915471
0.915263
0.915055
0.914846
0.914637
0.914427
0.914218
0.914007
0.913797
0.913586
0.913375
0.913164
0.912952
0.91274
0.912528
0.912315
0.912102
0.911889
0.911675
0.911461
0.911247
0.911033
0.910818
0.910603
0.910387
0.910171
0.909955
0.909739
0.909522
0.909305
0.909088
0.90887
0.908652
0.908433
0.908215
0.907996
0.907777
0.907557
0.907337
0.907117
0.906896
0.906675
0.906454
0.906233
0.906011
0.905789
0.905566
0.905343
0.90512
0.904897
0.904673
0.904449
0.904225
0.904
0.903775
0.90355
0.903324
0.903098
0.902872
0.902645
0.902418
0.902191
0.901964
0.901736
0.901508
0.901279
0.901051
0.900821
0.900592
0.900362
0.900132
0.899902
0.899671
0.89944
0.899209
0.898977
0.898745
0.898513
0.898281
0.898048
0.897815
0.897581
0.897347
0.897113
0.896879
0.896644
0.896409
0.896173
0.895938
0.895702
0.895465
0.895229
0.894992
0.894755
0.894517
0.894279
0.894041
0.893802
0.893564
0.893324
0.893085
0.892845
0.892605
0.892365
0.892124
0.891883
0.891642
0.8914
0.891158
0.890916
0.890673
0.89043
0.890187
0.889944
0.8897
0.889456
0.889211
0.888966
0.888721
0.888476
0.88823
0.887984
0.887738
0.887491
0.887244
0.886997
0.88675
0.886502
0.886254
0.886005
0.885756
0.885507
0.885258
0.885008
0.884758
0.884508
0.884257
0.884006
0.883755
0.883503
0.883251
0.882999
0.882747
0.882494
0.882241
0.881987
0.881734
0.88148
0.881225
0.880971
0.880716
0.88046
0.880205
0.879949
0.879693
0.879436
0.879179
0.878922
0.878665
0.878407
0.878149
0.877891
0.877632
0.877373
0.877114
0.876855
0.876595
0.876335
0.876074
0.875813
0.875552
0.875291
0.875029
0.874767
0.874505
0.874243
0.87398
0.873716
0.873453
0.873189
0.872925
0.872661
0.872396
0.872131
0.871866
0.8716
0.871334
0.871068
0.870802
0.870535
0.870268
0.87
0.869733
0.869465
0.869196
0.868928
0.868659
0.86839
0.86812
0.86785
0.86758
0.86731
0.867039
0.866768
0.866497
0.866225
0.865953
0.865681
0.865409
0.865136
0.864863
0.864589
0.864316
0.864042
0.863768
0.863493
0.863218
0.862943
0.862668
0.862392
0.862116
0.861839
0.861563
0.861286
0.861009
0.860731
0.860453
0.860175
0.859897
0.859618
0.859339
0.85906
0.858781
0.858501
0.858221
0.85794
0.857659
0.857378
0.857097
0.856816
0.856534
0.856252
0.855969
0.855686
0.855403
0.85512
0.854836
0.854552
0.854268
0.853984
0.853699
0.853414
0.853129
0.852843
0.852557
0.852271
0.851984
0.851698
0.85141
0.851123
0.850835
0.850548
0.850259
0.849971
0.849682
0.849393
0.849104
0.848814
0.848524
0.848234
0.847943
0.847653
0.847362
0.84707
0.846779
0.846487
0.846194
0.845902
0.845609
0.845316
0.845023
0.844729
0.844435
0.844141
0.843847
0.843552
0.843257
0.842962
0.842666
0.842371
0.842074
0.841778
0.841481
0.841184
0.840887
0.84059
0.840292
0.839994
0.839696
0.839397
0.839098
0.838799
0.838499
0.8382
0.8379
0.8376
0.837299
0.836998
0.836697
0.836396
0.836094
0.835792
0.83549
0.835188
0.834885
0.834582
0.834279
0.833975
0.833671
0.833367
0.833063
0.832758
0.832453
0.832148
0.831843
0.831537
0.831231
0.830925
0.830619
0.830312
0.830005
0.829697
0.82939
0.829082
0.828774
0.828466
0.828157
0.827848
0.827539
0.827229
0.82692
0.82661
0.8263
0.825989
0.825678
0.825367
0.825056
0.824745
0.824433
0.824121
0.823808
0.823496
0.823183
0.82287
0.822556
0.822243
0.821929
0.821615
0.8213
0.820986
0.820671
0.820356
0.82004
0.819724
0.819409
0.819092
0.818776
0.818459
0.818142
0.817825
0.817507
0.81719
0.816872
0.816553
0.816235
0.815916
0.815597
0.815278
0.814958
0.814639
0.814318
0.813998
0.813678
0.813357
0.813036
0.812715
0.812393
0.812071
0.811749
0.811427
0.811104
0.810782
0.810458
0.810135
0.809812
0.809488
0.809164
0.80884
0.808515
0.80819
0.807865
0.80754
0.807214
0.806889
0.806563
0.806236
0.80591
0.805583
0.805256
0.804929
0.804602
0.804274
0.803946
0.803618
0.803289
0.802961
0.802632
0.802303
0.801973
0.801644
0.801314
0.800984
0.800653
0.800323
0.799992
0.799661
0.79933
0.798998
0.798666
0.798334
0.798002
0.797669
0.797337
0.797004
0.796671
0.796337
0.796004
0.79567
0.795336
0.795001
0.794667
0.794332
0.793997
0.793661
0.793326
0.79299
0.792654
0.792318
0.791982
0.791645
0.791308
0.790971
0.790634
0.790296
0.789958
0.78962
0.789282
0.788943
0.788605
0.788266
0.787927
0.787587
0.787248
0.786908
0.786568
0.786228
0.785887
0.785546
0.785205
0.784864
0.784523
0.784181
0.783839
0.783497
0.783155
0.782812
0.78247
0.782127
0.781784
0.78144
0.781097
0.780753
0.780409
0.780065
0.77972
0.779375
0.779031
0.778685
0.77834
0.777995
0.777649
0.777303
0.776957
0.77661
0.776264
0.775917
0.77557
0.775223
0.774875
0.774527
0.77418
0.773832
0.773483
0.773135
0.772786
0.772437
0.772088
0.771739
0.771389
0.771039
0.770689
0.770339
0.769989
0.769638
0.769287
0.768936
0.768585
0.768234
0.767882
0.76753
0.767178
0.766826
0.766474
0.766121
0.765768
0.765415
0.765062
0.764709
0.764355
0.764001
0.763647
0.763293
0.762939
0.762584
0.762229
0.761874
0.761519
0.761163
0.760808
0.760452
0.760096
0.75974
0.759383
0.759027
0.75867
0.758313
0.757956
0.757599
0.757241
0.756883
0.756525
0.756167
0.755809
0.75545
0.755092
0.754733
0.754374
0.754015
0.753655
0.753296
0.752936
0.752576
0.752215
0.751855
0.751495
0.751134
0.750773
0.750412
0.75005
0.749689
0.749327
0.748965
0.748603
0.748241
0.747879
0.747516
0.747153
0.74679
0.746427
0.746064
0.7457
0.745337
0.744973
0.744609
0.744245
0.74388
0.743516
0.743151
0.742786
0.742421
0.742056
0.74169
0.741325
0.740959
0.740593
0.740227
0.73986
0.739494
0.739127
0.73876
0.738393
0.738026
0.737659
0.737291
0.736924
0.736556
0.736188
0.73582
0.735451
0.735083
0.734714
0.734345
0.733976
0.733607
0.733238
0.732868
0.732498
0.732128
0.731758
0.731388
0.731018
0.730647
0.730277
0.729906
0.729535
0.729164
0.728792
0.728421
0.728049
0.727677
0.727305
0.726933
0.726561
0.726189
0.725816
0.725443
0.72507
0.724697
0.724324
0.723951
0.723577
0.723203
0.722829
0.722455
0.722081
0.721707
0.721333
0.720958
0.720583
0.720208
0.719833
0.719458
0.719083
0.718707
0.718331
0.717955
0.71758
0.717203
0.716827
0.716451
0.716074
0.715697
0.715321
0.714944
0.714566
0.714189
0.713812
0.713434
0.713056
0.712678
0.7123
0.711922
0.711544
0.711166
0.710787
0.710408
0.710029
0.70965
0.709271
0.708892
0.708512
0.708133
0.707753
0.707373
0.706993
0.706613
0.706233
0.705853
0.705472
0.705091
0.704711
0.70433
0.703949
0.703567
0.703186
0.702805
0.702423
0.702041
0.701659
0.701277
0.700895
0.700513
0.700131
0.699748
0.699366
0.698983
0.6986
0.698217
0.697834
0.69745
0.697067
0.696683
0.6963
0.695916
0.695532
0.695148
0.694764
0.69438
0.693995
0.693611
0.693226
0.692841
0.692456
0.692071
0.691686
0.691301
0.690916
0.69053
0.690144
0.689759
0.689373
0.688987
0.688601
0.688215
0.687828
0.687442
0.687055
0.686669
0.686282
0.685895
0.685508
0.685121
0.684733
0.684346
0.683959
0.683571
0.683183
0.682796
0.682408
0.68202
0.681631
0.681243
0.680855
0.680466
0.680078
0.679689
0.6793
0.678911
0.678522
0.678133
0.677744
0.677355
0.676965
0.676576
0.676186
0.675796
0.675407
0.675017
0.674627
0.674236
0.673846
0.673456
0.673065
0.672675
0.672284
0.671893
0.671502
0.671111
0.67072
0.670329
0.669938
0.669547
0.669155
0.668764
0.668372
0.66798
0.667588
0.667197
0.666804
0.666412
0.66602
0.665628
0.665235
0.664843
0.66445
0.664058
0.663665
0.663272
0.662879
0.662486
0.662093
0.6617
0.661306
0.660913
0.66052
0.660126
0.659732
0.659339
0.658945
0.658551
0.658157
0.657763
0.657369
0.656974
0.65658
0.656186
0.655791
0.655396
0.655002
0.654607
0.654212
0.653817
0.653422
0.653027
0.652632
0.652237
0.651842
0.651446
0.651051
0.650655
0.650259
0.649864
0.649468
0.649072
0.648676
0.64828
0.647884
0.647488
0.647092
0.646695
0.646299
0.645903
0.645506
0.645109
0.644713
0.644316
0.643919
0.643522
0.643125
0.642728
0.642331
0.641934
0.641537
0.64114
0.640742
0.640345
0.639947
0.63955
0.639152
0.638754
0.638357
0.637959
0.637561
0.637163
0.636765
0.636367
0.635969
0.63557
0.635172
0.634774
0.634375
0.633977
0.633578
0.63318
0.632781
0.632383
0.631984
0.631585
0.631186
0.630787
0.630388
0.629989
0.62959
0.629191
0.628792
0.628392
0.627993
0.627594
0.627194
0.626795
0.626395
0.625996
0.625596
0.625196
0.624796
0.624397
0.623997
0.623597
0.623197
0.622797
0.622397
0.621997
0.621597
0.621196
0.620796
0.620396
0.619995
0.619595
0.619195
0.618794
0.618394
0.617993
0.617592
0.617192
0.616791
0.61639
0.615989
0.615589
0.615188
0.614787
0.614386
0.613985
0.613584
0.613183
0.612782
0.61238
0.611979
0.611578
0.611177
0.610775
0.610374
0.609973
0.609571
0.60917
0.608768
0.608367
0.607965
0.607563
0.607162
0.60676
0.606358
0.605956
0.605555
0.605153
0.604751
0.604349
0.603947
0.603545
0.603143
0.602741
0.602339
0.601937
0.601535
0.601133
0.600731
0.600329
0.599926
0.599524
0.599122
0.598719
0.598317
0.597915
0.597512
0.59711
0.596708
0.596305
0.595903
0.5955
0.595098
0.594695
0.594292
0.59389
0.593487
0.593085
0.592682
0.592279
0.591877
0.591474
0.591071
0.590668
0.590266
0.589863
0.58946
0.589057
0.588654
0.588251
0.587848
0.587446
0.587043
0.58664
0.586237
0.585834
0.585431
0.585028
0.584625
0.584222
0.583819
0.583416
0.583013
0.582609
0.582206
0.581803
0.5814
0.580997
0.580594
0.580191
0.579788
0.579384
0.578981
0.578578
0.578175
0.577772
0.577369
0.576965
0.576562
0.576159
0.575756
0.575352
0.574949
0.574546
0.574143
0.573739
0.573336
0.572933
0.57253
0.572126
0.571723
0.57132
0.570917
0.570513
0.57011
0.569707
0.569304
0.5689
0.568497
0.568094
0.56769
0.567287
0.566884
0.566481
0.566077
0.565674
0.565271
0.564868
0.564464
0.564061
0.563658
0.563255
0.562851
0.562448
0.562045
0.561642
0.561238
0.560835
0.560432
0.560029
0.559626
0.559223
0.558819
0.558416
0.558013
0.55761
0.557207
0.556804
0.556401
0.555998
0.555594
0.555191
0.554788
0.554385
0.553982
0.553579
0.553176
0.552773
0.55237
0.551967
0.551564
0.551161
0.550759
0.550356
0.549953
0.54955
0.549147
0.548744
0.548341
0.547939
0.547536
0.547133
0.54673
0.546328
0.545925
0.545522
0.54512
0.544717
0.544314
0.543912
0.543509
0.543107
0.542704
0.542302
0.541899
0.541497
0.541094
0.540692
0.540289
0.539887
0.539485
0.539082
0.53868
0.538278
0.537876
0.537473
0.537071
0.536669
0.536267
0.535865
0.535463
0.535061
0.534659
0.534257
0.533855
0.533453
0.533051
0.532649
0.532247
0.531845
0.531444
0.531042
0.53064
0.530239
0.529837
0.529435
0.529034
0.528632
0.528231
0.527829
0.527428
0.527026
0.526625
0.526224
0.525822
0.525421
0.52502
0.524619
0.524217
0.523816
0.523415
0.523014
0.522613
0.522212
0.521811
0.52141
0.52101
0.520609
0.520208
0.519807
0.519407
0.519006
0.518605
0.518205
0.517804
0.517404
0.517003
0.516603
0.516203
0.515802
0.515402
0.515002
0.514602
0.514202
0.513802
0.513402
0.513002
0.512602
0.512202
0.511802
0.511402
0.511002
0.510603
0.510203
0.509803
0.509404
0.509004
0.508605
0.508205
0.507806
0.507407
0.507007
0.506608
0.506209
0.50581
0.505411
0.505012
0.504613
0.504214
0.503815
0.503416
0.503018
0.502619
0.50222
0.501822
0.501423
0.501025
0.500626
0.500228
0.49983
0.499431
0.499033
0.498635
0.498237
0.497839
0.497441
0.497043
0.496645
0.496247
0.49585
0.495452
0.495054
0.494657
0.494259
0.493862
0.493464
0.493067
0.49267
0.492273
0.491876
0.491478
0.491081
0.490685
0.490288
0.489891
0.489494
0.489097
0.488701
0.488304
0.487908
0.487511
0.487115
0.486718
0.486322
0.485926
0.48553
0.485134
0.484738
0.484342
0.483946
0.48355
0.483155
0.482759
0.482363
0.481968
0.481572
0.481177
0.480782
0.480386
0.479991
0.479596
0.479201
0.478806
0.478411
0.478016
0.477622
0.477227
0.476832
0.476438
0.476043
0.475649
0.475255
0.47486
0.474466
0.474072
0.473678
0.473284
0.47289
0.472497
0.472103
0.471709
0.471316
0.470922
0.470529
0.470135
0.469742
0.469349
0.468956
0.468563
0.46817
0.467777
0.467384
0.466991
0.466599
0.466206
0.465814
0.465421
0.465029
0.464637
0.464244
0.463852
0.46346
0.463068
0.462677
0.462285
0.461893
0.461501
0.46111
0.460719
0.460327
0.459936
0.459545
0.459154
0.458763
0.458372
0.457981
0.45759
0.457199
0.456809
0.456418
0.456028
0.455637
0.455247
0.454857
0.454467
0.454077
0.453687
0.453297
0.452907
0.452518
0.452128
0.451739
0.451349
0.45096
0.450571
0.450181
0.449792
0.449403
0.449015
0.448626
0.448237
0.447849
0.44746
0.447072
0.446683
0.446295
0.445907
0.445519
0.445131
0.444743
0.444355
0.443968
0.44358
0.443193
0.442805
0.442418
0.442031
0.441644
0.441257
0.44087
0.440483
0.440096
0.439709
0.439323
0.438936
0.43855
0.438164
0.437778
0.437391
0.437006
0.43662
0.436234
0.435848
0.435463
0.435077
0.434692
0.434306
0.433921
0.433536
0.433151
0.432766
0.432381
0.431997
0.431612
0.431228
0.430843
0.430459
0.430075
0.429691
0.429307
0.428923
0.428539
0.428155
0.427772
0.427388
0.427005
0.426622
0.426238
0.425855
0.425472
0.425089
0.424707
0.424324
0.423941
0.423559
0.423177
0.422794
0.422412
0.42203
0.421648
0.421266
0.420885
0.420503
0.420122
0.41974
0.419359
0.418978
0.418597
0.418216
0.417835
0.417454
0.417073
0.416693
0.416312
0.415932
0.415552
0.415172
0.414792
0.414412
0.414032
0.413652
0.413273
0.412893
0.412514
0.412135
0.411756
0.411377
0.410998
0.410619
0.41024
0.409862
0.409483
0.409105
0.408727
0.408349
0.407971
0.407593
0.407215
0.406837
0.40646
0.406082
0.405705
0.405328
0.404951
0.404574
0.404197
0.40382
0.403443
0.403067
0.40269
0.402314
0.401938
0.401562
0.401186
0.40081
0.400434
0.400059
0.399683
0.399308
0.398933
0.398558
0.398183
0.397808
0.397433
0.397058
0.396684
0.396309
0.395935
0.395561
0.395187
0.394813
0.394439
0.394065
0.393692
0.393318
0.392945
0.392572
0.392198
0.391825
0.391453
0.39108
0.390707
0.390335
0.389962
0.38959
0.389218
0.388846
0.388474
0.388102
0.38773
0.387359
0.386988
0.386616
0.386245
0.385874
0.385503
0.385132
0.384762
0.384391
0.384021
0.38365
0.38328
0.38291
0.38254
0.38217
0.381801
0.381431
0.381062
0.380692
0.380323
0.379954
0.379585
0.379216
0.378848
0.378479
0.378111
0.377743
0.377374
0.377006
0.376638
0.376271
0.375903
0.375535
0.375168
0.374801
0.374434
0.374067
0.3737
0.373333
0.372966
0.3726
0.372233
0.371867
0.371501
0.371135
0.370769
0.370404
0.370038
0.369673
0.369307
0.368942
0.368577
0.368212
0.367847
0.367482
0.367118
0.366754
0.366389
0.366025
0.365661
0.365297
0.364933
0.36457
0.364206
0.363843
0.36348
0.363117
0.362754
0.362391
0.362028
0.361666
0.361303
0.360941
0.360579
0.360217
0.359855
0.359493
0.359131
0.35877
0.358409
0.358047
0.357686
0.357325
0.356964
0.356604
0.356243
0.355883
0.355523
0.355162
0.354802
0.354443
0.354083
0.353723
0.353364
0.353004
0.352645
0.352286
0.351927
0.351569
0.35121
0.350851
0.350493
0.350135
0.349777
0.349419
0.349061
0.348703
0.348346
0.347988
0.347631
0.347274
0.346917
0.34656
0.346204
0.345847
0.345491
0.345134
0.344778
0.344422
0.344066
0.343711
0.343355
0.343
0.342644
0.342289
0.341934
0.341579
0.341225
0.34087
0.340516
0.340161
0.339807
0.339453
0.339099
0.338746
0.338392
0.338038
0.337685
0.337332
0.336979
0.336626
0.336273
0.335921
0.335568
0.335216
0.334864
0.334512
0.33416
0.333808
0.333457
0.333105
0.332754
0.332403
0.332052
0.331701
0.33135
0.330999
0.330649
0.330299
0.329949
0.329599
0.329249
0.328899
0.328549
0.3282
0.327851
0.327502
0.327153
0.326804
0.326455
0.326106
0.325758
0.32541
0.325062
0.324714
0.324366
0.324018
0.323671
0.323323
0.322976
0.322629
0.322282
0.321935
0.321589
0.321242
0.320896
0.32055
0.320204
0.319858
0.319512
0.319166
0.318821
0.318476
0.31813
0.317785
0.31744
0.317096
0.316751
0.316407
0.316063
0.315718
0.315374
0.315031
0.314687
0.314343
0.314
0.313657
0.313314
0.312971
0.312628
0.312285
0.311943
0.311601
0.311258
0.310916
0.310575
0.310233
0.309891
0.30955
0.309209
0.308867
0.308526
0.308186
0.307845
0.307504
0.307164
0.306824
0.306484
0.306144
0.305804
0.305465
0.305125
0.304786
0.304447
0.304108
0.303769
0.30343
0.303092
0.302753
0.302415
0.302077
0.301739
0.301401
0.301064
0.300726
0.300389
0.300052
0.299715
0.299378
0.299041
0.298705
0.298368
0.298032
0.297696
0.29736
0.297024
0.296688
0.296353
0.296018
0.295682
0.295347
0.295013
0.294678
0.294343
0.294009
0.293675
0.293341
0.293007
0.292673
0.292339
0.292006
0.291673
0.291339
0.291006
0.290674
0.290341
0.290008
0.289676
0.289344
0.289012
0.28868
0.288348
0.288017
0.287685
0.287354
0.287023
0.286692
0.286361
0.28603
0.2857
0.285369
0.285039
0.284709
0.284379
0.28405
0.28372
0.283391
0.283061
0.282732
0.282403
0.282075
0.281746
0.281418
0.281089
0.280761
0.280433
0.280105
0.279778
0.27945
0.279123
0.278796
0.278468
0.278142
0.277815
0.277488
0.277162
0.276836
0.27651
0.276184
0.275858
0.275532
0.275207
0.274881
0.274556
0.274231
0.273907
0.273582
0.273257
0.272933
0.272609
0.272285
0.271961
0.271637
0.271314
0.27099
0.270667
0.270344
0.270021
0.269698
0.269376
0.269053
0.268731
0.268409
0.268087
0.267765
0.267444
0.267122
0.266801
0.26648
0.266159
0.265838
0.265517
0.265197
0.264876
0.264556
0.264236
0.263916
0.263596
0.263277
0.262958
0.262638
0.262319
0.262
0.261682
0.261363
0.261045
0.260726
0.260408
0.26009
0.259772
0.259455
0.259137
0.25882
0.258503
0.258186
0.257869
0.257553
0.257236
0.25692
0.256604
0.256288
0.255972
0.255656
0.255341
0.255025
0.25471
0.254395
0.25408
0.253765
0.253451
0.253136
0.252822
0.252508
0.252194
0.251881
0.251567
0.251254
0.25094
0.250627
0.250314
0.250001
0.249689
0.249376
0.249064
0.248752
0.24844
0.248128
0.247817
0.247505
0.247194
0.246883
0.246572
0.246261
0.24595
0.24564
0.24533
0.245019
0.244709
0.2444
0.24409
0.24378
0.243471
0.243162
0.242853
0.242544
0.242235
0.241927
0.241618
0.24131
0.241002
0.240694
0.240387
0.240079
0.239772
0.239464
0.239157
0.23885
0.238544
0.238237
0.237931
0.237625
0.237318
0.237013
0.236707
0.236401
0.236096
0.235791
0.235485
0.235181
0.234876
0.234571
0.234267
0.233962
0.233658
0.233354
0.233051
0.232747
0.232444
0.23214
0.231837
0.231534
0.231231
0.230929
0.230626
0.230324
0.230022
0.22972
0.229418
0.229116
0.228815
0.228514
0.228212
0.227911
0.227611
0.22731
0.22701
0.226709
0.226409
0.226109
0.225809
0.22551
0.22521
0.224911
0.224612
0.224313
0.224014
0.223715
0.223416
0.223118
0.22282
0.222522
0.222224
0.221926
0.221629
0.221331
0.221034
0.220737
0.22044
0.220144
0.219847
0.219551
0.219255
0.218958
0.218663
0.218367
0.218071
0.217776
0.217481
0.217186
0.216891
0.216596
0.216302
0.216007
0.215713
0.215419
0.215125
0.214831
0.214538
0.214244
0.213951
0.213658
0.213365
0.213072
0.21278
0.212487
0.212195
0.211903
0.211611
0.211319
0.211028
0.210736
0.210445
0.210154
0.209863
0.209572
0.209282
0.208991
0.208701
0.208411
0.208121
0.207831
0.207542
0.207252
0.206963
0.206674
0.206385
0.206096
0.205808
0.205519
0.205231
0.204943
0.204655
0.204367
0.204079
0.203792
0.203505
0.203217
0.202931
0.202644
0.202357
0.202071
0.201784
0.201498
0.201212
0.200926
0.200641
0.200355
0.20007
0.199785
0.1995
0.199215
0.198931
0.198646
0.198362
0.198078
0.197794
0.19751
0.197226
0.196943
0.196659
0.196376
0.196093
0.19581
0.195528
0.195245
0.194963
0.194681
0.194399
0.194117
0.193835
0.193554
0.193272
0.192991
0.19271
0.192429
0.192149
0.191868
0.191588
0.191308
0.191028
0.190748
0.190468
0.190189
0.189909
0.18963
0.189351
0.189072
0.188794
0.188515
0.188237
0.187959
0.187681
0.187403
0.187125
0.186847
0.18657
0.186293
0.186016
0.185739
0.185462
0.185186
0.184909
0.184633
0.184357
0.184081
0.183806
0.18353
0.183255
0.182979
0.182704
0.182429
0.182155
0.18188
0.181606
0.181332
0.181057
0.180784
0.18051
0.180236
0.179963
0.17969
0.179417
0.179144
0.178871
0.178598
0.178326
0.178054
0.177782
0.17751
0.177238
0.176966
0.176695
0.176424
0.176153
0.175882
0.175611
0.17534
0.17507
0.174799
0.174529
0.174259
0.17399
0.17372
0.173451
0.173181
0.172912
0.172643
0.172374
0.172106
0.171837
0.171569
0.171301
0.171033
0.170765
0.170497
0.17023
0.169963
0.169696
0.169429
0.169162
0.168895
0.168629
0.168362
0.168096
0.16783
0.167564
0.167299
0.167033
0.166768
0.166502
0.166237
0.165973
0.165708
0.165443
0.165179
0.164915
0.164651
0.164387
0.164123
0.16386
0.163596
0.163333
0.16307
0.162807
0.162544
0.162282
0.162019
0.161757
0.161495
0.161233
0.160971
0.16071
0.160448
0.160187
0.159926
0.159665
0.159404
0.159144
0.158883
0.158623
0.158363
0.158103
0.157843
0.157584
0.157324
0.157065
0.156806
0.156547
0.156288
0.156029
0.155771
0.155513
0.155254
0.154996
0.154739
0.154481
0.154223
0.153966
0.153709
0.153452
0.153195
0.152938
0.152682
0.152425
0.152169
0.151913
0.151657
0.151402
0.151146
0.150891
0.150635
0.15038
0.150125
0.149871
0.149616
0.149362
0.149107
0.148853
0.148599
0.148346
0.148092
0.147839
0.147585
0.147332
0.147079
0.146826
0.146574
0.146321
0.146069
0.145817
0.145565
0.145313
0.145061
0.14481
0.144559
0.144307
0.144056
0.143805
0.143555
0.143304
0.143054
0.142804
0.142554
0.142304
0.142054
0.141804
0.141555
0.141306
0.141057
0.140808
0.140559
0.14031
0.140062
0.139814
0.139566
0.139318
0.13907
0.138822
0.138575
0.138327
0.13808
0.137833
0.137586
0.13734
0.137093
0.136847
0.136601
0.136355
0.136109
0.135863
0.135617
0.135372
0.135127
0.134882
0.134637
0.134392
0.134147
0.133903
0.133659
0.133415
0.133171
0.132927
0.132683
0.13244
0.132197
0.131953
0.13171
0.131468
0.131225
0.130982
0.13074
0.130498
0.130256
0.130014
0.129772
0.129531
0.129289
0.129048
0.128807
0.128566
0.128325
0.128085
0.127844
0.127604
0.127364
0.127124
0.126884
0.126644
0.126405
0.126165
0.125926
0.125687
0.125448
0.12521
0.124971
0.124733
0.124495
0.124256
0.124019
0.123781
0.123543
0.123306
0.123068
0.122831
0.122594
0.122358
0.122121
0.121884
0.121648
0.121412
0.121176
0.12094
0.120704
0.120469
0.120233
0.119998
0.119763
0.119528
0.119293
0.119059
0.118824
0.11859
0.118356
0.118122
0.117888
0.117655
0.117421
0.117188
0.116955
0.116722
0.116489
0.116256
0.116023
0.115791
0.115559
0.115327
0.115095
0.114863
0.114631
0.1144
0.114169
0.113937
0.113706
0.113476
0.113245
0.113014
0.112784
0.112554
0.112324
0.112094
0.111864
0.111634
0.111405
0.111176
0.110947
0.110718
0.110489
0.11026
0.110032
0.109803
0.109575
0.109347
0.109119
0.108891
0.108664
0.108436
0.108209
0.107982
0.107755
0.107528
0.107302
0.107075
0.106849
0.106623
0.106397
0.106171
0.105945
0.105719
0.105494
0.105269
0.105044
0.104819
0.104594
0.104369
0.104145
0.103921
0.103696
0.103472
0.103248
0.103025
0.102801
0.102578
0.102355
0.102131
0.101908
0.101686
0.101463
0.101241
0.101018
0.100796
0.100574
0.100352
0.10013
0.0999089
0.0996874
0.0994662
0.0992451
0.0990241
0.0988033
0.0985827
0.0983622
0.0981418
0.0979216
0.0977016
0.0974817
0.0972619
0.0970424
0.0968229
0.0966036
0.0963845
0.0961655
0.0959467
0.095728
0.0955095
0.0952912
0.0950729
0.0948549
0.094637
0.0944192
0.0942016
0.0939841
0.0937668
0.0935497
0.0933327
0.0931158
0.0928991
0.0926826
0.0924662
0.0922499
0.0920338
0.0918179
0.0916021
0.0913864
0.0911709
0.0909556
0.0907404
0.0905253
0.0903104
0.0900957
0.0898811
0.0896667
0.0894524
0.0892382
0.0890242
0.0888104
0.0885967
0.0883832
0.0881698
0.0879565
0.0877435
0.0875305
0.0873177
0.0871051
0.0868926
0.0866802
0.086468
0.086256
0.0860441
0.0858324
0.0856208
0.0854093
0.085198
0.0849869
0.0847759
0.084565
0.0843543
0.0841438
0.0839334
0.0837231
0.083513
0.083303
0.0830932
0.0828836
0.082674
0.0824647
0.0822555
0.0820464
0.0818375
0.0816287
0.0814201
0.0812116
0.0810033
0.0807951
0.0805871
0.0803792
0.0801714
0.0799638
0.0797564
0.0795491
0.079342
0.079135
0.0789281
0.0787214
0.0785148
0.0783084
0.0781022
0.077896
0.0776901
0.0774842
0.0772786
0.077073
0.0768676
0.0766624
0.0764573
0.0762524
0.0760476
0.0758429
0.0756384
0.0754341
0.0752298
0.0750258
0.0748219
0.0746181
0.0744145
0.074211
0.0740076
0.0738044
0.0736014
0.0733985
0.0731957
0.0729931
0.0727907
0.0725884
0.0723862
0.0721842
0.0719823
0.0717805
0.0715789
0.0713775
0.0711762
0.070975
0.070774
0.0705731
0.0703724
0.0701718
0.0699714
0.0697711
0.069571
0.069371
0.0691711
0.0689714
0.0687718
0.0685724
0.0683731
0.068174
0.067975
0.0677761
0.0675774
0.0673789
0.0671805
0.0669822
0.0667841
0.0665861
0.0663882
0.0661905
0.065993
0.0657956
0.0655983
0.0654012
0.0652042
0.0650073
0.0648106
0.0646141
0.0644177
0.0642214
0.0640253
0.0638293
0.0636334
0.0634377
0.0632422
0.0630467
0.0628515
0.0626563
0.0624614
0.0622665
0.0620718
0.0618772
0.0616828
0.0614885
0.0612944
0.0611004
0.0609065
0.0607128
0.0605192
0.0603258
0.0601325
0.0599394
0.0597464
0.0595535
0.0593608
0.0591682
0.0589757
0.0587834
0.0585913
0.0583993
0.0582074
0.0580156
0.057824
0.0576326
0.0574413
0.0572501
0.057059
0.0568681
0.0566774
0.0564868
0.0562963
0.0561059
0.0559157
0.0557257
0.0555358
0.055346
0.0551563
0.0549668
0.0547775
0.0545883
0.0543992
0.0542102
0.0540214
0.0538328
0.0536442
0.0534559
0.0532676
0.0530795
0.0528915
0.0527037
0.052516
0.0523284
0.052141
0.0519538
0.0517666
0.0515796
0.0513927
0.051206
0.0510194
0.050833
0.0506467
0.0504605
0.0502745
0.0500886
0.0499028
0.0497172
0.0495317
0.0493464
0.0491611
0.0489761
0.0487911
0.0486063
0.0484217
0.0482372
0.0480528
0.0478685
0.0476844
0.0475004
0.0473166
0.0471329
0.0469493
0.0467659
0.0465826
0.0463994
0.0462164
0.0460335
0.0458508
0.0456682
0.0454857
0.0453033
0.0451211
0.0449391
0.0447571
0.0445753
0.0443937
0.0442122
0.0440308
0.0438495
0.0436684
0.0434874
0.0433066
0.0431258
0.0429453
0.0427648
0.0425845
0.0424043
0.0422243
0.0420444
0.0418646
0.041685
0.0415055
0.0413261
0.0411469
0.0409678
0.0407888
0.04061
0.0404313
0.0402527
0.0400743
0.039896
0.0397179
0.0395398
0.0393619
0.0391842
0.0390065
0.0388291
0.0386517
0.0384745
0.0382974
0.0381204
0.0379436
0.0377669
0.0375903
0.0374139
0.0372376
0.0370615
0.0368854
0.0367095
0.0365338
0.0363581
0.0361826
0.0360073
0.035832
0.0356569
0.035482
0.0353071
0.0351324
0.0349579
0.0347834
0.0346091
0.0344349
0.0342609
0.034087
0.0339132
0.0337395
0.033566
0.0333926
0.0332194
0.0330462
0.0328732
0.0327004
0.0325276
0.032355
0.0321826
0.0320102
0.031838
0.0316659
0.031494
0.0313222
0.0311505
0.0309789
0.0308075
0.0306362
0.030465
0.030294
0.0301231
0.0299523
0.0297817
0.0296111
0.0294408
0.0292705
0.0291004
0.0289304
0.0287605
0.0285908
0.0284211
0.0282517
0.0280823
0.0279131
0.027744
0.027575
0.0274062
0.0272375
0.0270689
0.0269004
0.0267321
0.0265639
0.0263959
0.0262279
0.0260601
0.0258924
0.0257249
0.0255575
0.0253902
0.025223
0.0250559
0.024889
0.0247222
0.0245556
0.0243891
0.0242227
0.0240564
0.0238902
0.0237242
0.0235583
0.0233925
0.0232269
0.0230614
0.022896
0.0227307
0.0225656
0.0224006
0.0222357
0.022071
0.0219063
0.0217418
0.0215775
0.0214132
0.0212491
0.0210851
0.0209212
0.0207575
0.0205939
0.0204304
0.020267
0.0201038
0.0199407
0.0197777
0.0196148
0.0194521
0.0192895
0.019127
0.0189646
0.0188024
0.0186403
0.0184783
0.0183164
0.0181547
0.0179931
0.0178316
0.0176702
0.017509
0.0173479
0.0171869
0.017026
0.0168653
0.0167047
0.0165442
0.0163838
0.0162236
0.0160634
0.0159035
0.0157436
0.0155838
0.0154242
0.0152647
0.0151053
0.0149461
0.0147869
0.0146279
0.014469
0.0143103
0.0141516
0.0139931
0.0138347
0.0136765
0.0135183
0.0133603
0.0132024
0.0130446
0.012887
0.0127294
0.012572
0.0124147
0.0122576
0.0121005
0.0119436
0.0117868
0.0116301
0.0114736
0.0113171
0.0111608
0.0110046
0.0108485
0.0106926
0.0105368
0.0103811
0.0102255
0.01007
0.00991467
0.00975944
0.00960434
0.00944936
0.00929451
0.00913977
0.00898515
0.00883065
0.00867628
0.00852202
0.00836789
0.00821387
0.00805998
0.0079062
0.00775255
0.00759901
0.0074456
0.0072923
0.00713913
0.00698607
0.00683314
0.00668032
0.00652763
0.00637505
0.00622259
0.00607026
0.00591804
0.00576594
0.00561396
0.0054621
0.00531035
0.00515873
0.00500723
0.00485584
0.00470458
0.00455343
0.0044024
0.00425149
0.00410069
0.00395002
0.00379946
0.00364902
0.0034987
0.0033485
0.00319842
0.00304845
0.00289861
0.00274888
0.00259926
0.00244977
0.00230039
0.00215113
0.00200199
0.00185296
0.00170406
0.00155526
0.00140659
0.00125803
0.00110959
0.000961272
0.000813066
0.000664977
0.000517005
0.000369149
0.00022141
7.37876e-05
)
;

boundaryField
{
    bottom
    {
        type            calculated;