/*--------------------------------*- C++ -*----------------------------------*\
| =========                 |                                                 |
| \\      /  F ield         | OpenFOAM: The Open Source CFD Toolbox           |
|  \\    /   O peration     | Version:  v2012                                 |
|   \\  /    A nd           | Website:  www.openfoam.com                      |
|    \\/     M anipulation  |                                                 |
\*---------------------------------------------------------------------------*/
FoamFile
{
    version     2.0;
    format      ascii;
    class       volVectorField;
    location    "1";
    object      Na;
}
// * * * * * * * * * * * * * * * * * * * * * * * * * * * * * * * * * * * * * //

dimensions      [1 -2 -1 0 0 0 0];


internalField   nonuniform List<vector> 
100
(
(0 0 7.91842e-06)
(0 0 7.93592e-06)
(0 0 7.9535e-06)
(0 0 7.97115e-06)
(0 0 7.98888e-06)
(0 0 8.00669e-06)
(0 0 8.02458e-06)
(0 0 8.04255e-06)
(0 0 8.0606e-06)
(0 0 8.07874e-06)
(0 0 8.09695e-06)
(0 0 8.11525e-06)
(0 0 8.13363e-06)
(0 0 8.15209e-06)
(0 0 8.17064e-06)
(0 0 8.18927e-06)
(0 0 8.20798e-06)
(0 0 8.22679e-06)
(0 0 8.24567e-06)
(0 0 8.26465e-06)
(0 0 8.28371e-06)
(0 0 8.30286e-06)
(0 0 8.3221e-06)
(0 0 8.34143e-06)
(0 0 8.36085e-06)
(0 0 8.38036e-06)
(0 0 8.39996e-06)
(0 0 8.41966e-06)
(0 0 8.43944e-06)
(0 0 8.45932e-06)
(0 0 8.4793e-06)
(0 0 8.49936e-06)
(0 0 8.51952e-06)
(0 0 8.53978e-06)
(0 0 8.56014e-06)
(0 0 8.58059e-06)
(0 0 8.60114e-06)
(0 0 8.62179e-06)
(0 0 8.64254e-06)
(0 0 8.66339e-06)
(0 0 8.68434e-06)
(0 0 8.70539e-06)
(0 0 8.72654e-06)
(0 0 8.7478e-06)
(0 0 8.76916e-06)
(0 0 8.79062e-06)
(0 0 8.81219e-06)
(0 0 8.83387e-06)
(0 0 8.85565e-06)
(0 0 8.87754e-06)
(0 0 8.89954e-06)
(0 0 8.92165e-06)
(0 0 8.94387e-06)
(0 0 8.96619e-06)
(0 0 8.98864e-06)
(0 0 9.01119e-06)
(0 0 9.03386e-06)
(0 0 9.05664e-06)
(0 0 9.07954e-06)
(0 0 9.10255e-06)
(0 0 9.12568e-06)
(0 0 9.14893e-06)
(0 0 9.17229e-06)
(0 0 9.19578e-06)
(0 0 9.21938e-06)
(0 0 9.24311e-06)
(0 0 9.26696e-06)
(0 0 9.29094e-06)
(0 0 9.31504e-06)
(0 0 9.33926e-06)
(0 0 9.36361e-06)
(0 0 9.38809e-06)
(0 0 9.41269e-06)
(0 0 9.43743e-06)
(0 0 9.46229e-06)
(0 0 9.48729e-06)
(0 0 9.51242e-06)
(0 0 9.53768e-06)
(0 0 9.56308e-06)
(0 0 9.58861e-06)
(0 0 9.61428e-06)
(0 0 9.64009e-06)
(0 0 9.66603e-06)
(0 0 9.69212e-06)
(0 0 9.71835e-06)
(0 0 9.74472e-06)
(0 0 9.77123e-06)
(0 0 9.79789e-06)
(0 0 9.82469e-06)
(0 0 9.85164e-06)
(0 0 9.87874e-06)
(0 0 9.90599e-06)
(0 0 9.93339e-06)
(0 0 9.96094e-06)
(0 0 9.98865e-06)
(0 0 1.00165e-05)
(0 0 1.00445e-05)
(0 0 1.00727e-05)
(0 0 1.0101e-05)
(0 0 1.01295e-05)
)
;

boundaryField
{
    bottom
    {
        type            calculated;
        value           uniform (0 0 7.9097e-06);
    }
    top
    {
        type            calculated;
        value           uniform (0 0 1.01438e-05);
    }
    sidesX
    {
        type            empty;
    }
    sidesY
    {
        type            empty;
    }
}


// ************************************************************************* //
