/*--------------------------------*- C++ -*----------------------------------*\
| =========                 |                                                 |
| \\      /  F ield         | OpenFOAM: The Open Source CFD Toolbox           |
|  \\    /   O peration     | Version:  v2012                                 |
|   \\  /    A nd           | Website:  www.openfoam.com                      |
|    \\/     M anipulation  |                                                 |
\*---------------------------------------------------------------------------*/
FoamFile
{
    version     2.0;
    format      ascii;
    class       volVectorField;
    location    "1";
    object      Na;
}
// * * * * * * * * * * * * * * * * * * * * * * * * * * * * * * * * * * * * * //

dimensions      [1 -2 -1 0 0 0 0];


internalField   nonuniform List<vector> 
100
(
(-0 -0 1.91297e-05)
(-0 -0 1.90759e-05)
(-0 -0 1.90224e-05)
(-0 -0 1.89692e-05)
(-0 -0 1.89163e-05)
(-0 -0 1.88637e-05)
(-0 -0 1.88114e-05)
(-0 -0 1.87593e-05)
(-0 -0 1.87076e-05)
(-0 -0 1.86561e-05)
(-0 -0 1.8605e-05)
(-0 -0 1.85541e-05)
(-0 -0 1.85034e-05)
(-0 -0 1.84531e-05)
(-0 -0 1.8403e-05)
(-0 -0 1.83532e-05)
(-0 -0 1.83037e-05)
(-0 -0 1.82544e-05)
(-0 -0 1.82054e-05)
(-0 -0 1.81567e-05)
(-0 -0 1.81082e-05)
(-0 -0 1.806e-05)
(-0 -0 1.8012e-05)
(-0 -0 1.79643e-05)
(-0 -0 1.79169e-05)
(-0 -0 1.78697e-05)
(-0 -0 1.78227e-05)
(-0 -0 1.7776e-05)
(-0 -0 1.77295e-05)
(-0 -0 1.76833e-05)
(-0 -0 1.76373e-05)
(-0 -0 1.75916e-05)
(-0 -0 1.75461e-05)
(-0 -0 1.75008e-05)
(-0 -0 1.74557e-05)
(-0 -0 1.74109e-05)
(-0 -0 1.73664e-05)
(-0 -0 1.7322e-05)
(-0 -0 1.72779e-05)
(-0 -0 1.7234e-05)
(-0 -0 1.71903e-05)
(-0 -0 1.71468e-05)
(-0 -0 1.71036e-05)
(-0 -0 1.70606e-05)
(-0 -0 1.70178e-05)
(-0 -0 1.69752e-05)
(-0 -0 1.69328e-05)
(-0 -0 1.68906e-05)
(-0 -0 1.68487e-05)
(-0 -0 1.68069e-05)
(-0 -0 1.67654e-05)
(-0 -0 1.6724e-05)
(-0 -0 1.66829e-05)
(-0 -0 1.66419e-05)
(-0 -0 1.66012e-05)
(-0 -0 1.65607e-05)
(-0 -0 1.65203e-05)
(-0 -0 1.64802e-05)
(-0 -0 1.64402e-05)
(-0 -0 1.64005e-05)
(-0 -0 1.63609e-05)
(-0 -0 1.63216e-05)
(-0 -0 1.62824e-05)
(-0 -0 1.62434e-05)
(-0 -0 1.62046e-05)
(-0 -0 1.61659e-05)
(-0 -0 1.61275e-05)
(-0 -0 1.60892e-05)
(-0 -0 1.60512e-05)
(-0 -0 1.60133e-05)
(-0 -0 1.59755e-05)
(-0 -0 1.5938e-05)
(-0 -0 1.59006e-05)
(-0 -0 1.58635e-05)
(-0 -0 1.58264e-05)
(-0 -0 1.57896e-05)
(-0 -0 1.57529e-05)
(-0 -0 1.57164e-05)
(-0 -0 1.56801e-05)
(-0 -0 1.56439e-05)
(-0 -0 1.56079e-05)
(-0 -0 1.55721e-05)
(-0 -0 1.55364e-05)
(-0 -0 1.55009e-05)
(-0 -0 1.54655e-05)
(-0 -0 1.54304e-05)
(-0 -0 1.53953e-05)
(-0 -0 1.53605e-05)
(-0 -0 1.53258e-05)
(-0 -0 1.52912e-05)
(-0 -0 1.52568e-05)
(-0 -0 1.52226e-05)
(-0 -0 1.51885e-05)
(-0 -0 1.51545e-05)
(-0 -0 1.51207e-05)
(-0 -0 1.50871e-05)
(-0 -0 1.50536e-05)
(-0 -0 1.50203e-05)
(-0 -0 1.49871e-05)
(-0 -0 1.49541e-05)
)
;

boundaryField
{
    bottom
    {
        type            calculated;
        value           uniform (-0 -0 1.91567e-05);
    }
    top
    {
        type            calculated;
        value           uniform (-0 -0 1.49376e-05);
    }
    sidesX
    {
        type            empty;
    }
    sidesY
    {
        type            empty;
    }
}


// ************************************************************************* //
