/*--------------------------------*- C++ -*----------------------------------*\
| =========                 |                                                 |
| \\      /  F ield         | OpenFOAM: The Open Source CFD Toolbox           |
|  \\    /   O peration     | Version:  v2012                                 |
|   \\  /    A nd           | Website:  www.openfoam.com                      |
|    \\/     M anipulation  |                                                 |
\*---------------------------------------------------------------------------*/
FoamFile
{
    version     2.0;
    format      ascii;
    class       volVectorField;
    location    "1";
    object      Nb;
}
// * * * * * * * * * * * * * * * * * * * * * * * * * * * * * * * * * * * * * //

dimensions      [1 -2 -1 0 0 0 0];


internalField   nonuniform List<vector> 
100
(
(0 0 -1.2588e-05)
(0 0 -1.25526e-05)
(0 0 -1.25174e-05)
(0 0 -1.24824e-05)
(0 0 -1.24475e-05)
(0 0 -1.24129e-05)
(0 0 -1.23785e-05)
(0 0 -1.23443e-05)
(0 0 -1.23102e-05)
(0 0 -1.22763e-05)
(0 0 -1.22427e-05)
(0 0 -1.22092e-05)
(0 0 -1.21759e-05)
(0 0 -1.21427e-05)
(0 0 -1.21098e-05)
(0 0 -1.2077e-05)
(0 0 -1.20444e-05)
(0 0 -1.2012e-05)
(0 0 -1.19798e-05)
(0 0 -1.19477e-05)
(0 0 -1.19158e-05)
(0 0 -1.18841e-05)
(0 0 -1.18525e-05)
(0 0 -1.18211e-05)
(0 0 -1.17899e-05)
(0 0 -1.17588e-05)
(0 0 -1.17279e-05)
(0 0 -1.16972e-05)
(0 0 -1.16666e-05)
(0 0 -1.16362e-05)
(0 0 -1.16059e-05)
(0 0 -1.15758e-05)
(0 0 -1.15459e-05)
(0 0 -1.15161e-05)
(0 0 -1.14864e-05)
(0 0 -1.1457e-05)
(0 0 -1.14276e-05)
(0 0 -1.13984e-05)
(0 0 -1.13694e-05)
(0 0 -1.13405e-05)
(0 0 -1.13118e-05)
(0 0 -1.12832e-05)
(0 0 -1.12547e-05)
(0 0 -1.12264e-05)
(0 0 -1.11982e-05)
(0 0 -1.11702e-05)
(0 0 -1.11423e-05)
(0 0 -1.11146e-05)
(0 0 -1.1087e-05)
(0 0 -1.10595e-05)
(0 0 -1.10321e-05)
(0 0 -1.10049e-05)
(0 0 -1.09779e-05)
(0 0 -1.09509e-05)
(0 0 -1.09241e-05)
(0 0 -1.08975e-05)
(0 0 -1.08709e-05)
(0 0 -1.08445e-05)
(0 0 -1.08182e-05)
(0 0 -1.07921e-05)
(0 0 -1.0766e-05)
(0 0 -1.07401e-05)
(0 0 -1.07143e-05)
(0 0 -1.06887e-05)
(0 0 -1.06631e-05)
(0 0 -1.06377e-05)
(0 0 -1.06124e-05)
(0 0 -1.05872e-05)
(0 0 -1.05622e-05)
(0 0 -1.05372e-05)
(0 0 -1.05124e-05)
(0 0 -1.04877e-05)
(0 0 -1.04631e-05)
(0 0 -1.04387e-05)
(0 0 -1.04143e-05)
(0 0 -1.03901e-05)
(0 0 -1.03659e-05)
(0 0 -1.03419e-05)
(0 0 -1.0318e-05)
(0 0 -1.02942e-05)
(0 0 -1.02705e-05)
(0 0 -1.02469e-05)
(0 0 -1.02235e-05)
(0 0 -1.02001e-05)
(0 0 -1.01768e-05)
(0 0 -1.01537e-05)
(0 0 -1.01306e-05)
(0 0 -1.01077e-05)
(0 0 -1.00848e-05)
(0 0 -1.00621e-05)
(0 0 -1.00395e-05)
(0 0 -1.00169e-05)
(0 0 -9.99451e-06)
(0 0 -9.97217e-06)
(0 0 -9.94994e-06)
(0 0 -9.92781e-06)
(0 0 -9.90577e-06)
(0 0 -9.88383e-06)
(0 0 -9.86199e-06)
(0 0 -9.84025e-06)
)
;

boundaryField
{
    bottom
    {
        type            calculated;
        value           uniform (0 0 -1.26058e-05);
    }
    top
    {
        type            calculated;
        value           uniform (0 0 -9.82941e-06);
    }
    sidesX
    {
        type            empty;
    }
    sidesY
    {
        type            empty;
    }
}


// ************************************************************************* //
