/*--------------------------------*- C++ -*----------------------------------*\
| =========                 |                                                 |
| \\      /  F ield         | OpenFOAM: The Open Source CFD Toolbox           |
|  \\    /   O peration     | Version:  v2012                                 |
|   \\  /    A nd           | Website:  www.openfoam.com                      |
|    \\/     M anipulation  |                                                 |
\*---------------------------------------------------------------------------*/
FoamFile
{
    version     2.0;
    format      ascii;
    class       volScalarField;
    location    "1";
    object      rho_a;
}
// * * * * * * * * * * * * * * * * * * * * * * * * * * * * * * * * * * * * * //

dimensions      [1 -3 0 0 0 0 0];


internalField   nonuniform List<scalar> 
100
(
0.959668
0.952443
0.945219
0.937994
0.930769
0.923545
0.91632
0.909096
0.901871
0.894646
0.887422
0.880197
0.872973
0.865748
0.858523
0.851299
0.844074
0.83685
0.829625
0.8224
0.815176
0.807951
0.800727
0.793502
0.786277
0.779053
0.771828
0.764604
0.757379
0.750154
0.74293
0.735705
0.728481
0.721256
0.714031
0.706807
0.699582
0.692358
0.685133
0.677908
0.670684
0.663459
0.656235
0.64901
0.641785
0.634561
0.627336
0.620112
0.612887
0.605662
0.598438
0.591213
0.583989
0.576764
0.569539
0.562315
0.55509
0.547866
0.540641
0.533416
0.526192
0.518967
0.511742
0.504518
0.497293
0.490069
0.482844
0.475619
0.468395
0.46117
0.453946
0.446721
0.439496
0.432272
0.425047
0.417823
0.410598
0.403373
0.396149
0.388924
0.3817
0.374475
0.36725
0.360026
0.352801
0.345577
0.338352
0.331127
0.323903
0.316678
0.309454
0.302229
0.295004
0.28778
0.280555
0.273331
0.266106
0.258881
0.251657
0.244432
)
;

boundaryField
{
    bottom
    {
        type            fixedValue;
        value           uniform 0.96328;
    }
    top
    {
        type            fixedValue;
        value           uniform 0.24082;
    }
    sidesX
    {
        type            empty;
    }
    sidesY
    {
        type            empty;
    }
}


// ************************************************************************* //
