/*--------------------------------*- C++ -*----------------------------------*\
| =========                 |                                                 |
| \\      /  F ield         | OpenFOAM: The Open Source CFD Toolbox           |
|  \\    /   O peration     | Version:  v2012                                 |
|   \\  /    A nd           | Website:  www.openfoam.com                      |
|    \\/     M anipulation  |                                                 |
\*---------------------------------------------------------------------------*/
FoamFile
{
    version     2.0;
    format      ascii;
    class       volVectorField;
    location    "49";
    object      jb;
}
// * * * * * * * * * * * * * * * * * * * * * * * * * * * * * * * * * * * * * //

dimensions      [1 -2 -1 0 0 0 0];


internalField   nonuniform List<vector> 
100
(
(-0 -0 -1.72288e-05)
(-0 -0 -1.72936e-05)
(-0 -0 -1.73587e-05)
(-0 -0 -1.7424e-05)
(-0 -0 -1.74896e-05)
(-0 -0 -1.75554e-05)
(-0 -0 -1.76215e-05)
(-0 -0 -1.76878e-05)
(-0 -0 -1.77543e-05)
(-0 -0 -1.78211e-05)
(-0 -0 -1.78882e-05)
(-0 -0 -1.79555e-05)
(-0 -0 -1.80231e-05)
(-0 -0 -1.80909e-05)
(-0 -0 -1.8159e-05)
(-0 -0 -1.82273e-05)
(-0 -0 -1.82959e-05)
(-0 -0 -1.83648e-05)
(-0 -0 -1.84339e-05)
(-0 -0 -1.85032e-05)
(-0 -0 -1.85729e-05)
(-0 -0 -1.86428e-05)
(-0 -0 -1.87129e-05)
(-0 -0 -1.87833e-05)
(-0 -0 -1.8854e-05)
(-0 -0 -1.8925e-05)
(-0 -0 -1.89962e-05)
(-0 -0 -1.90677e-05)
(-0 -0 -1.91394e-05)
(-0 -0 -1.92114e-05)
(-0 -0 -1.92837e-05)
(-0 -0 -1.93563e-05)
(-0 -0 -1.94291e-05)
(-0 -0 -1.95022e-05)
(-0 -0 -1.95756e-05)
(-0 -0 -1.96493e-05)
(-0 -0 -1.97232e-05)
(-0 -0 -1.97975e-05)
(-0 -0 -1.9872e-05)
(-0 -0 -1.99467e-05)
(-0 -0 -2.00218e-05)
(-0 -0 -2.00972e-05)
(-0 -0 -2.01728e-05)
(-0 -0 -2.02487e-05)
(-0 -0 -2.03249e-05)
(-0 -0 -2.04014e-05)
(-0 -0 -2.04781e-05)
(-0 -0 -2.05552e-05)
(-0 -0 -2.06326e-05)
(-0 -0 -2.07102e-05)
(-0 -0 -2.07881e-05)
(-0 -0 -2.08664e-05)
(-0 -0 -2.09449e-05)
(-0 -0 -2.10237e-05)
(-0 -0 -2.11028e-05)
(-0 -0 -2.11822e-05)
(-0 -0 -2.12619e-05)
(-0 -0 -2.13419e-05)
(-0 -0 -2.14223e-05)
(-0 -0 -2.15029e-05)
(-0 -0 -2.15838e-05)
(-0 -0 -2.1665e-05)
(-0 -0 -2.17465e-05)
(-0 -0 -2.18284e-05)
(-0 -0 -2.19105e-05)
(-0 -0 -2.1993e-05)
(-0 -0 -2.20757e-05)
(-0 -0 -2.21588e-05)
(-0 -0 -2.22422e-05)
(-0 -0 -2.23259e-05)
(-0 -0 -2.24099e-05)
(-0 -0 -2.24942e-05)
(-0 -0 -2.25789e-05)
(-0 -0 -2.26638e-05)
(-0 -0 -2.27491e-05)
(-0 -0 -2.28347e-05)
(-0 -0 -2.29207e-05)
(-0 -0 -2.30069e-05)
(-0 -0 -2.30935e-05)
(-0 -0 -2.31804e-05)
(-0 -0 -2.32676e-05)
(-0 -0 -2.33552e-05)
(-0 -0 -2.34431e-05)
(-0 -0 -2.35313e-05)
(-0 -0 -2.36198e-05)
(-0 -0 -2.37087e-05)
(-0 -0 -2.3798e-05)
(-0 -0 -2.38875e-05)
(-0 -0 -2.39774e-05)
(-0 -0 -2.40676e-05)
(-0 -0 -2.41582e-05)
(-0 -0 -2.42491e-05)
(-0 -0 -2.43404e-05)
(-0 -0 -2.4432e-05)
(-0 -0 -2.45239e-05)
(-0 -0 -2.46162e-05)
(-0 -0 -2.47088e-05)
(-0 -0 -2.48018e-05)
(-0 -0 -2.48951e-05)
(-0 -0 -2.49888e-05)
)
;

boundaryField
{
    bottom
    {
        type            calculated;
        value           uniform (-0 -0 -1.71964e-05);
    }
    top
    {
        type            calculated;
        value           uniform (-0 -0 -2.50357e-05);
    }
    sidesX
    {
        type            empty;
    }
    sidesY
    {
        type            empty;
    }
}


// ************************************************************************* //
