/*--------------------------------*- C++ -*----------------------------------*\
| =========                 |                                                 |
| \\      /  F ield         | OpenFOAM: The Open Source CFD Toolbox           |
|  \\    /   O peration     | Version:  v2012                                 |
|   \\  /    A nd           | Website:  www.openfoam.com                      |
|    \\/     M anipulation  |                                                 |
\*---------------------------------------------------------------------------*/
FoamFile
{
    version     2.0;
    format      ascii;
    class       volVectorField;
    location    "50";
    object      Nb;
}
// * * * * * * * * * * * * * * * * * * * * * * * * * * * * * * * * * * * * * //

dimensions      [1 -2 -1 0 0 0 0];


internalField   nonuniform List<vector> 
3200
(
(-0 -0 -2.38609e-18)
(-0 -0 4.26778e-18)
(-0 -0 -3.07431e-18)
(-0 -0 2.56736e-18)
(-0 -0 5.10337e-19)
(-0 -0 -3.08659e-18)
(-0 -0 8.5635e-19)
(-0 -0 5.1669e-19)
(-0 -0 -1.20067e-18)
(-0 -0 2.2349e-18)
(-0 -0 -3.95734e-18)
(-0 -0 2.75921e-18)
(-0 -0 -5.17537e-19)
(-0 -0 -8.62703e-19)
(-0 -0 1.21168e-18)
(-0 -0 -3.43895e-19)
(-0 -0 1.21295e-18)
(-0 -0 -3.29453e-18)
(-0 -0 3.4686e-18)
(-0 -0 -6.97532e-19)
(-0 -0 -6.92449e-19)
(-0 -0 -3.47707e-19)
(-0 -0 -1.91726e-18)
(-0 -0 1.04778e-18)
(-0 -0 -1.71948e-19)
(-0 -0 1.75336e-19)
(-0 -0 6.97108e-19)
(-0 -0 8.75409e-19)
(-0 -0 -4.23516e-22)
(-0 -0 0)
(-0 -0 -3.53636e-19)
(-0 -0 1.75632e-18)
(-0 -0 -2.6347e-18)
(-0 -0 -1.93378e-18)
(-0 -0 4.05263e-18)
(-0 -0 -2.46952e-18)
(-0 -0 5.31937e-19)
(-0 -0 8.85149e-19)
(-0 -0 1.783e-19)
(-0 -0 -7.07696e-19)
(-0 -0 2.1269e-18)
(-0 -0 -2.30266e-18)
(-0 -0 2.30393e-18)
(-0 -0 -3.56601e-19)
(-0 -0 -2.13325e-18)
(-0 -0 -1.77835e-18)
(-0 -0 3.03026e-18)
(-0 -0 -1.24683e-18)
(-0 -0 3.57871e-19)
(-0 -0 2.96462e-21)
(-0 -0 5.34901e-19)
(-0 -0 -1.78809e-18)
(-0 -0 1.78978e-18)
(-0 -0 -1.2553e-18)
(-0 -0 1.25615e-18)
(-0 -0 -1.43826e-18)
(-0 -0 1.81265e-19)
(-0 -0 5.42948e-19)
(-0 -0 3.57448e-19)
(-0 -0 5.39984e-19)
(-0 -0 2.88838e-18)
(-0 -0 -1.26166e-18)
(-0 -0 -7.20402e-19)
(-0 -0 1.69407e-21)
(-0 -0 -3.25811e-18)
(-0 -0 3.98614e-18)
(-0 -0 -5.08008e-18)
(-0 -0 2.72575e-18)
(-0 -0 -7.28448e-19)
(-0 -0 1.63604e-18)
(-0 -0 5.44219e-19)
(-0 -0 -1.82409e-18)
(-0 -0 7.30989e-19)
(-0 -0 -9.10137e-19)
(-0 -0 -1.28241e-18)
(-0 -0 4.57398e-18)
(-0 -0 -2.74735e-18)
(-0 -0 3.64648e-19)
(-0 -0 2.93751e-18)
(-0 -0 -3.6757e-18)
(-0 -0 7.37342e-19)
(-0 -0 9.18184e-19)
(-0 -0 -2.02441e-18)
(-0 -0 2.9481e-18)
(-0 -0 -9.2496e-19)
(-0 -0 -7.38189e-19)
(-0 -0 2.03627e-18)
(-0 -0 -3.5173e-18)
(-0 -0 1.48315e-18)
(-0 -0 1.85288e-18)
(-0 -0 -4.45497e-18)
(-0 -0 7.45813e-19)
(-0 -0 -8.47033e-22)
(-0 -0 -8.47033e-22)
(-0 -0 1.30697e-18)
(-0 -0 1.11724e-18)
(-0 -0 -3.17468e-18)
(-0 -0 4.29573e-18)
(-0 -0 -4.48927e-18)
(-0 -0 1.49459e-18)
(-0 -0 2.9985e-18)
(-0 -0 -3.38813e-21)
(-0 -0 -7.49201e-19)
(-0 -0 7.50895e-19)
(-0 -0 -1.88211e-18)
(-0 -0 5.64547e-19)
(-0 -0 -1.32137e-18)
(-0 -0 1.69661e-18)
(-0 -0 7.52165e-19)
(-0 -0 -2.07608e-18)
(-0 -0 -3.81165e-19)
(-0 -0 -9.43171e-19)
(-0 -0 -1.32349e-18)
(-0 -0 1.13629e-18)
(-0 -0 1.89778e-18)
(-0 -0 1.90032e-18)
(-0 -0 -3.42244e-18)
(-0 -0 3.80318e-19)
(-0 -0 1.52381e-18)
(-0 -0 -2.86043e-18)
(-0 -0 3.81419e-18)
(-0 -0 3.81165e-19)
(-0 -0 -7.67412e-19)
(-0 -0 -4.01832e-18)
(-0 -0 2.68086e-18)
(-0 -0 1.34255e-18)
(-0 -0 -7.66565e-19)
(-0 -0 1.94818e-19)
(-0 -0 1.34424e-18)
(-0 -0 1.92276e-19)
(-0 -0 -3.27463e-18)
(-0 -0 -1.93971e-19)
(-0 -0 -9.64771e-19)
(-0 -0 1.54329e-18)
(-0 -0 1.35525e-18)
(-0 -0 1.93124e-19)
(-0 -0 1.35525e-18)
(-0 -0 -2.71728e-18)
(-0 -0 -1.95665e-19)
(-0 -0 -1.69407e-21)
(-0 -0 3.30936e-18)
(-0 -0 -4.08693e-18)
(-0 -0 3.50333e-18)
(-0 -0 -1.55769e-18)
(-0 -0 3.92176e-19)
(-0 -0 -9.77476e-19)
(-0 -0 -1.17229e-18)
(-0 -0 -9.80864e-19)
(-0 -0 1.94818e-19)
(-0 -0 3.33223e-18)
(-0 -0 -3.53128e-18)
(-0 -0 3.53806e-18)
(-0 -0 8.47033e-22)
(-0 -0 3.93023e-19)
(-0 -0 -8.47033e-22)
(-0 -0 -1.99053e-19)
(-0 -0 -5.91229e-19)
(-0 -0 -1.97782e-18)
(-0 -0 4.55111e-18)
(-0 -0 -1.97952e-18)
(-0 -0 7.9367e-19)
(-0 -0 -1.97952e-18)
(-0 -0 2.97647e-18)
(-0 -0 -3.37966e-18)
(-0 -0 -7.9367e-19)
(-0 -0 7.9367e-19)
(-0 -0 -2.01594e-19)
(-0 -0 1.97359e-19)
(-0 -0 3.98953e-19)
(-0 -0 1.39591e-18)
(-0 -0 -2.79944e-18)
(-0 -0 1.60174e-18)
(-0 -0 -1.20363e-18)
(-0 -0 1.20363e-18)
(-0 -0 2.60717e-18)
(-0 -0 -4.62056e-18)
(-0 -0 -1.20956e-18)
(-0 -0 2.01086e-18)
(-0 -0 3.42286e-18)
(-0 -0 -5.04323e-18)
(-0 -0 3.22804e-18)
(-0 -0 -2.01933e-18)
(-0 -0 2.02441e-19)
(-0 -0 -1.82366e-18)
(-0 -0 4.66038e-18)
(-0 -0 -2.02949e-18)
(-0 -0 -2.8418e-18)
(-0 -0 2.44115e-18)
(-0 -0 -2.84942e-18)
(-0 -0 2.03542e-18)
(-0 -0 4.05729e-19)
(-0 -0 8.13999e-19)
(-0 -0 4.10811e-19)
(-0 -0 1.22312e-18)
(-0 -0 8.17387e-19)
(-0 -0 -8.19081e-19)
(-0 -0 -4.10811e-19)
(-0 -0 -8.19928e-19)
(-0 -0 -1.22989e-18)
(-0 -0 -1.64494e-18)
(-0 -0 2.87737e-18)
(-0 -0 -4.11658e-19)
(-0 -0 8.25857e-19)
(-0 -0 -1.23667e-18)
(-0 -0 -1.65087e-18)
(-0 -0 1.65341e-18)
(-0 -0 2.071e-18)
(-0 -0 0)
(-0 -0 -4.10811e-19)
(-0 -0 -2.49112e-18)
(-0 -0 4.15046e-19)
(-0 -0 -1.66527e-18)
(-0 -0 1.66696e-18)
(-0 -0 4.16232e-18)
(-0 -0 -2.08455e-18)
(-0 -0 -4.1674e-19)
(-0 -0 -2.92057e-18)
(-0 -0 3.76252e-18)
(-0 -0 -4.20975e-19)
(-0 -0 2.51484e-18)
(-0 -0 -2.93582e-18)
(-0 -0 -2.93836e-18)
(-0 -0 2.51823e-18)
(-0 -0 -1.68051e-18)
(-0 -0 1.6839e-18)
(-0 -0 4.20975e-19)
(-0 -0 8.44492e-19)
(-0 -0 4.23516e-19)
(-0 -0 -2.9553e-18)
(-0 -0 2.53771e-18)
(-0 -0 -1.69152e-18)
(-0 -0 4.22669e-19)
(-0 -0 8.49574e-19)
(-0 -0 -8.47033e-22)
(-0 -0 2.5411e-21)
(-0 -0 -1.7e-18)
(-0 -0 -4.27752e-19)
(-0 -0 3.83367e-18)
(-0 -0 -1.69407e-21)
(-0 -0 -2.13368e-18)
(-0 -0 0)
(-0 -0 -2.14045e-18)
(-0 -0 8.58044e-19)
(-0 -0 -8.47033e-22)
(-0 -0 0)
(-0 -0 -1.29003e-18)
(-0 -0 3.00443e-18)
(-0 -0 -1.72032e-18)
(-0 -0 3.87348e-18)
(-0 -0 -5.1669e-18)
(-0 -0 3.45166e-18)
(-0 -0 -1.2985e-18)
(-0 -0 -3.45335e-18)
(-0 -0 4.32495e-18)
(-0 -0 -2.16417e-18)
(-0 -0 1.73557e-18)
(-0 -0 -1.29935e-18)
(-0 -0 1.30274e-18)
(-0 -0 0)
(-0 -0 -2.17264e-18)
(-0 -0 2.60971e-18)
(-0 -0 1.30697e-18)
(-0 -0 -1.30867e-18)
(-0 -0 2.61648e-18)
(-0 -0 -6.11388e-18)
(-0 -0 4.80522e-18)
(-0 -0 -3.50333e-18)
(-0 -0 1.31544e-18)
(-0 -0 1.69407e-21)
(-0 -0 -2.1972e-18)
(-0 -0 1.7559e-18)
(-0 -0 -1.31629e-18)
(-0 -0 4.40372e-18)
(-0 -0 -3.96666e-18)
(-0 -0 1.76352e-18)
(-0 -0 -1.76352e-18)
(-0 -0 4.40457e-19)
(-0 -0 1.76606e-18)
(-0 -0 1.32391e-18)
(-0 -0 -4.45539e-19)
(-0 -0 -3.99545e-18)
(-0 -0 8.87691e-19)
(-0 -0 8.86843e-19)
(-0 -0 -2.22431e-18)
(-0 -0 2.67069e-18)
(-0 -0 -8.9362e-19)
(-0 -0 -4.4808e-19)
(-0 -0 2.23278e-18)
(-0 -0 -8.94467e-19)
(-0 -0 -1.3417e-18)
(-0 -0 4.02595e-18)
(-0 -0 -4.4808e-18)
(-0 -0 8.9362e-19)
(-0 -0 4.46386e-19)
(-0 -0 1.7974e-18)
(-0 -0 4.4808e-19)
(-0 -0 -3.60328e-18)
(-0 -0 9.03784e-19)
(-0 -0 -3.15943e-18)
(-0 -0 2.70542e-18)
(-0 -0 1.35779e-18)
(-0 -0 4.54857e-19)
(-0 -0 -4.49774e-19)
(-0 -0 -2.5411e-21)
(-0 -0 1.35949e-18)
(-0 -0 1.36203e-18)
(-0 -0 -3.63377e-18)
(-0 -0 -1.36626e-18)
(-0 -0 9.08019e-19)
(-0 -0 1.8262e-18)
(-0 -0 -1.36542e-18)
(-0 -0 -1.37219e-18)
(-0 -0 1.8279e-18)
(-0 -0 0)
(-0 -0 3.20263e-18)
(-0 -0 4.58245e-19)
(-0 -0 -3.2111e-18)
(-0 -0 -4.59939e-19)
(-0 -0 2.7537e-18)
(-0 -0 -3.67528e-18)
(-0 -0 -1.84145e-18)
(-0 -0 4.6104e-18)
(-0 -0 -2.76387e-18)
(-0 -0 9.22419e-19)
(-0 -0 4.16063e-18)
(-0 -0 -3.70153e-18)
(-0 -0 1.38659e-18)
(-0 -0 -3.70916e-18)
(-0 -0 2.7842e-18)
(-0 -0 -1.69407e-21)
(-0 -0 -2.78589e-18)
(-0 -0 -4.66715e-19)
(-0 -0 4.65614e-18)
(-0 -0 -3.25938e-18)
(-0 -0 4.65021e-19)
(-0 -0 2.79944e-18)
(-0 -0 -4.20721e-18)
(-0 -0 9.35124e-19)
(-0 -0 -1.40269e-18)
(-0 -0 2.81384e-18)
(-0 -0 -8.47033e-22)
(-0 -0 4.67562e-19)
(-0 -0 -1.87957e-18)
(-0 -0 -1.41116e-18)
(-0 -0 -4.70103e-19)
(-0 -0 5.65733e-18)
(-0 -0 -3.77607e-18)
(-0 -0 -1.8855e-18)
(-0 -0 1.41709e-18)
(-0 -0 9.48677e-19)
(-0 -0 2.5411e-21)
(-0 -0 2.8418e-18)
(-0 -0 1.42217e-18)
(-0 -0 -8.47033e-22)
(-0 -0 -4.77727e-19)
(-0 -0 -1.90413e-18)
(-0 -0 9.53759e-19)
(-0 -0 -1.90752e-18)
(-0 -0 9.52912e-19)
(-0 -0 -2.86467e-18)
(-0 -0 1.69407e-21)
(-0 -0 3.34747e-18)
(-0 -0 -9.57147e-19)
(-0 -0 1.91684e-18)
(-0 -0 4.78574e-19)
(-0 -0 -9.63923e-19)
(-0 -0 -3.36526e-18)
(-0 -0 5.28972e-18)
(-0 -0 -2.88754e-18)
(-0 -0 -3.37204e-18)
(-0 -0 3.37881e-18)
(-0 -0 -4.83656e-19)
(-0 -0 -2.41574e-18)
(-0 -0 1.93716e-18)
(-0 -0 -1.45012e-18)
(-0 -0 2.42082e-18)
(-0 -0 -4.86197e-19)
(-0 -0 -9.68159e-19)
(-0 -0 1.4569e-18)
(-0 -0 -1.94818e-18)
(-0 -0 1.45859e-18)
(-0 -0 1.95326e-18)
(-0 -0 -3.90228e-18)
(-0 -0 9.74935e-19)
(-0 -0 1.46876e-18)
(-0 -0 -4.90432e-19)
(-0 -0 2.44877e-18)
(-0 -0 -2.9392e-18)
(-0 -0 -1.95919e-18)
(-0 -0 1.47384e-18)
(-0 -0 -3.44319e-18)
(-0 -0 1.96596e-18)
(-0 -0 4.90432e-19)
(-0 -0 -9.84252e-19)
(-0 -0 4.43845e-18)
(-0 -0 2.5411e-21)
(-0 -0 -3.46098e-18)
(-0 -0 3.95818e-18)
(-0 -0 -5.44642e-18)
(-0 -0 1.48654e-18)
(-0 -0 -4.97208e-19)
(-0 -0 1.98375e-18)
(-0 -0 2.98071e-18)
(-0 -0 -4.47488e-18)
(-0 -0 -4.98902e-19)
(-0 -0 1.99646e-18)
(-0 -0 -1.00035e-18)
(-0 -0 -1.00119e-18)
(-0 -0 1.99815e-18)
(-0 -0 -5.01444e-19)
(-0 -0 1.00204e-18)
(-0 -0 2.00493e-18)
(-0 -0 -4.0124e-18)
(-0 -0 2.5411e-21)
(-0 -0 2.0134e-18)
(-0 -0 1.00628e-18)
(-0 -0 -3.5245e-18)
(-0 -0 1.51195e-18)
(-0 -0 2.52077e-18)
(-0 -0 -1.51449e-18)
(-0 -0 -2.02102e-18)
(-0 -0 -1.51788e-18)
(-0 -0 5.06526e-18)
(-0 -0 1.01475e-18)
(-0 -0 -5.0822e-19)
(-0 -0 -5.58364e-18)
(-0 -0 2.5411e-18)
(-0 -0 -1.01475e-18)
(-0 -0 1.53144e-18)
(-0 -0 5.13302e-19)
(-0 -0 5.09914e-19)
(-0 -0 1.02322e-18)
(-0 -0 -1.53482e-18)
(-0 -0 -2.04474e-18)
(-0 -0 2.04982e-18)
(-0 -0 -1.69407e-21)
(-0 -0 1.0266e-18)
(-0 -0 -1.5416e-18)
(-0 -0 -4.1098e-18)
(-0 -0 3.08828e-18)
(-0 -0 -2.57837e-18)
(-0 -0 3.09167e-18)
(-0 -0 -1.03169e-18)
(-0 -0 1.54838e-18)
(-0 -0 3.62022e-18)
(-0 -0 -4.14369e-18)
(-0 -0 1.55346e-18)
(-0 -0 -1.04185e-18)
(-0 -0 -1.69407e-21)
(-0 -0 -2.07862e-18)
(-0 -0 2.07862e-18)
(-0 -0 -1.55685e-18)
(-0 -0 3.64563e-18)
(-0 -0 -1.04185e-18)
(-0 -0 -1.56532e-18)
(-0 -0 -5.21772e-19)
(-0 -0 2.09217e-18)
(-0 -0 -2.61733e-18)
(-0 -0 -1.04524e-18)
(-0 -0 -5.2516e-19)
(-0 -0 4.19959e-18)
(-0 -0 -5.23466e-19)
(-0 -0 1.57548e-18)
(-0 -0 -4.73661e-18)
(-0 -0 2.63597e-18)
(-0 -0 1.0571e-18)
(-0 -0 -1.05201e-18)
(-0 -0 2.64274e-18)
(-0 -0 -1.58565e-18)
(-0 -0 -1.58565e-18)
(-0 -0 3.17468e-18)
(-0 -0 -3.18315e-18)
(-0 -0 -3.7117e-18)
(-0 -0 6.37477e-18)
(-0 -0 -5.84792e-18)
(-0 -0 4.79421e-18)
(-0 -0 1.69407e-21)
(-0 -0 -4.79929e-18)
(-0 -0 4.27074e-18)
(-0 -0 -2.13791e-18)
(-0 -0 2.67493e-18)
(-0 -0 5.35325e-19)
(-0 -0 -3.75066e-18)
(-0 -0 2.14469e-18)
(-0 -0 -1.60936e-18)
(-0 -0 3.76421e-18)
(-0 -0 -1.07743e-18)
(-0 -0 -2.69187e-18)
(-0 -0 -1.69407e-21)
(-0 -0 -5.38713e-19)
(-0 -0 3.77777e-18)
(-0 -0 -3.78624e-18)
(-0 -0 4.33003e-18)
(-0 -0 -1.6263e-18)
(-0 -0 -1.08251e-18)
(-0 -0 5.40407e-19)
(-0 -0 3.38813e-21)
(-0 -0 -2.1701e-18)
(-0 -0 3.26277e-18)
(-0 -0 -1.08759e-18)
(-0 -0 1.63308e-18)
(-0 -0 0)
(-0 -0 -4.36561e-18)
(-0 -0 2.18535e-18)
(-0 -0 3.38813e-21)
(-0 -0 2.18873e-18)
(-0 -0 -5.47183e-19)
(-0 -0 -1.69407e-21)
(-0 -0 -2.74439e-18)
(-0 -0 0)
(-0 -0 2.1972e-18)
(-0 -0 2.20398e-18)
(-0 -0 -3.30851e-18)
(-0 -0 -1.10453e-18)
(-0 -0 4.42151e-18)
(-0 -0 -2.21076e-18)
(-0 -0 -1.10792e-18)
(-0 -0 1.10623e-18)
(-0 -0 -2.21923e-18)
(-0 -0 4.43506e-18)
(-0 -0 -2.22261e-18)
(-0 -0 -4.44692e-18)
(-0 -0 3.33562e-18)
(-0 -0 -2.2277e-18)
(-0 -0 3.34578e-18)
(-0 -0 1.11808e-18)
(-0 -0 -1.11978e-18)
(-0 -0 -3.35086e-18)
(-0 -0 3.35764e-18)
(-0 -0 0)
(-0 -0 -2.23956e-18)
(-0 -0 2.24125e-18)
(-0 -0 -4.49266e-18)
(-0 -0 4.49605e-18)
(-0 -0 -1.12317e-18)
(-0 -0 2.2548e-18)
(-0 -0 -2.25141e-18)
(-0 -0 2.25988e-18)
(-0 -0 -2.25819e-18)
(-0 -0 2.25819e-18)
(-0 -0 -1.12994e-18)
(-0 -0 -1.12994e-18)
(-0 -0 -1.13333e-18)
(-0 -0 2.26666e-18)
(-0 -0 -1.13502e-18)
(-0 -0 1.13502e-18)
(-0 -0 1.13672e-18)
(-0 -0 -3.41693e-18)
(-0 -0 3.41693e-18)
(-0 -0 -2.28021e-18)
(-0 -0 1.13841e-18)
(-0 -0 -1.14349e-18)
(-0 -0 1.1418e-18)
(-0 -0 -1.14688e-18)
(-0 -0 -1.69407e-21)
(-0 -0 -1.69407e-21)
(-0 -0 2.29377e-18)
(-0 -0 -4.596e-18)
(-0 -0 2.29715e-18)
(-0 -0 2.30393e-18)
(-0 -0 -3.45251e-18)
(-0 -0 2.30732e-18)
(-0 -0 -1.15535e-18)
(-0 -0 -1.15705e-18)
(-0 -0 4.62819e-18)
(-0 -0 -2.31409e-18)
(-0 -0 0)
(-0 -0 1.15874e-18)
(-0 -0 -1.16044e-18)
(-0 -0 -1.16044e-18)
(-0 -0 2.32765e-18)
(-0 -0 -4.65868e-18)
(-0 -0 3.49825e-18)
(-0 -0 0)
(-0 -0 3.38813e-21)
(-0 -0 0)
(-0 -0 1.16721e-18)
(-0 -0 2.34289e-18)
(-0 -0 -3.51857e-18)
(-0 -0 1.17399e-18)
(-0 -0 1.17568e-18)
(-0 -0 -1.17738e-18)
(-0 -0 1.69407e-21)
(-0 -0 -2.35306e-18)
(-0 -0 -1.17738e-18)
(-0 -0 4.71967e-18)
(-0 -0 -4.72475e-18)
(-0 -0 3.54907e-18)
(-0 -0 -1.18585e-18)
(-0 -0 -1.69407e-21)
(-0 -0 -2.37339e-18)
(-0 -0 3.56262e-18)
(-0 -0 1.18754e-18)
(-0 -0 -3.56601e-18)
(-0 -0 -1.69407e-21)
(-0 -0 -1.19262e-18)
(-0 -0 1.19262e-18)
(-0 -0 2.38694e-18)
(-0 -0 -2.38694e-18)
(-0 -0 -1.19432e-18)
(-0 -0 1.69407e-21)
(-0 -0 3.38813e-21)
(-0 -0 1.69407e-21)
(-0 -0 2.3988e-18)
(-0 -0 -2.40219e-18)
(-0 -0 1.20448e-18)
(-0 -0 1.69407e-21)
(-0 -0 2.40557e-18)
(-0 -0 -1.20448e-18)
(-0 -0 -3.6253e-18)
(-0 -0 4.83486e-18)
(-0 -0 -4.83656e-18)
(-0 -0 1.20787e-18)
(-0 -0 -1.20787e-18)
(-0 -0 1.20956e-18)
(-0 -0 3.63547e-18)
(-0 -0 0)
(-0 -0 -2.43268e-18)
(-0 -0 0)
(-0 -0 -1.69407e-21)
(-0 -0 -1.69407e-21)
(-0 -0 2.43945e-18)
(-0 -0 1.22481e-18)
(-0 -0 -2.44454e-18)
(-0 -0 1.22142e-18)
(-0 -0 1.69407e-21)
(-0 -0 -1.22312e-18)
(-0 -0 -2.45809e-18)
(-0 -0 3.68459e-18)
(-0 -0 -2.4564e-18)
(-0 -0 0)
(-0 -0 1.69407e-21)
(-0 -0 -2.46995e-18)
(-0 -0 1.69407e-21)
(-0 -0 -1.69407e-21)
(-0 -0 -1.23497e-18)
(-0 -0 3.7117e-18)
(-0 -0 3.71509e-18)
(-0 -0 -3.71847e-18)
(-0 -0 1.24344e-18)
(-0 -0 -2.4835e-18)
(-0 -0 3.73372e-18)
(-0 -0 1.69407e-21)
(-0 -0 -3.38813e-21)
(-0 -0 -4.98564e-18)
(-0 -0 1.25022e-18)
(-0 -0 1.24853e-18)
(-0 -0 3.38813e-21)
(-0 -0 -1.25361e-18)
(-0 -0 1.25191e-18)
(-0 -0 2.50891e-18)
(-0 -0 1.26039e-18)
(-0 -0 -3.7676e-18)
(-0 -0 -1.26039e-18)
(-0 -0 2.51569e-18)
(-0 -0 -2.51569e-18)
(-0 -0 1.26208e-18)
(-0 -0 2.52246e-18)
(-0 -0 -3.78963e-18)
(-0 -0 1.26377e-18)
(-0 -0 1.26208e-18)
(-0 -0 -2.53263e-18)
(-0 -0 1.27055e-18)
(-0 -0 2.5394e-18)
(-0 -0 -1.27224e-18)
(-0 -0 -2.5394e-18)
(-0 -0 2.54449e-18)
(-0 -0 1.27733e-18)
(-0 -0 -2.54788e-18)
(-0 -0 1.27902e-18)
(-0 -0 -1.27394e-18)
(-0 -0 1.28071e-18)
(-0 -0 -2.55465e-18)
(-0 -0 5.12794e-18)
(-0 -0 -2.5699e-18)
(-0 -0 1.27902e-18)
(-0 -0 -3.85231e-18)
(-0 -0 -1.69407e-21)
(-0 -0 -3.38813e-21)
(-0 -0 2.58006e-18)
(-0 -0 1.69407e-21)
(-0 -0 3.87263e-18)
(-0 -0 -6.45778e-18)
(-0 -0 3.38813e-21)
(-0 -0 2.59361e-18)
(-0 -0 1.29427e-18)
(-0 -0 1.29427e-18)
(-0 -0 -2.597e-18)
(-0 -0 2.597e-18)
(-0 -0 -3.89974e-18)
(-0 -0 1.29935e-18)
(-0 -0 1.30274e-18)
(-0 -0 1.30443e-18)
(-0 -0 -3.91837e-18)
(-0 -0 2.61056e-18)
(-0 -0 -2.61733e-18)
(-0 -0 -1.30782e-18)
(-0 -0 1.3146e-18)
(-0 -0 -2.62241e-18)
(-0 -0 2.62411e-18)
(-0 -0 -2.62411e-18)
(-0 -0 2.62919e-18)
(-0 -0 1.69407e-21)
(-0 -0 2.63597e-18)
(-0 -0 -3.95395e-18)
(-0 -0 -3.38813e-21)
(-0 -0 -3.38813e-21)
(-0 -0 -1.69407e-21)
(-0 -0 -2.6546e-18)
(-0 -0 1.32645e-18)
(-0 -0 2.6546e-18)
(-0 -0 3.98614e-18)
(-0 -0 -3.98614e-18)
(-0 -0 2.65799e-18)
(-0 -0 -3.99291e-18)
(-0 -0 1.33154e-18)
(-0 -0 2.66815e-18)
(-0 -0 -5.34308e-18)
(-0 -0 2.67493e-18)
(-0 -0 1.33831e-18)
(-0 -0 -4.01494e-18)
(-0 -0 1.3417e-18)
(-0 -0 1.34001e-18)
(-0 -0 1.69407e-21)
(-0 -0 2.69018e-18)
(-0 -0 1.34848e-18)
(-0 -0 -8.079e-18)
(-0 -0 1.34678e-18)
(-0 -0 2.70373e-18)
(-0 -0 -1.69407e-21)
(-0 -0 -1.34848e-18)
(-0 -0 4.0539e-18)
(-0 -0 -4.06406e-18)
(-0 -0 1.35525e-18)
(-0 -0 2.71559e-18)
(-0 -0 -1.35864e-18)
(-0 -0 -2.71898e-18)
(-0 -0 1.69407e-21)
(-0 -0 4.08609e-18)
(-0 -0 1.36033e-18)
(-0 -0 -1.36203e-18)
(-0 -0 -2.73083e-18)
(-0 -0 -1.36711e-18)
(-0 -0 -1.36711e-18)
(-0 -0 4.10642e-18)
(-0 -0 -1.3705e-18)
(-0 -0 -1.37219e-18)
(-0 -0 1.37728e-18)
(-0 -0 -4.11997e-18)
(-0 -0 5.50402e-18)
(-0 -0 -1.37728e-18)
(-0 -0 1.37728e-18)
(-0 -0 2.75794e-18)
(-0 -0 -5.52265e-18)
(-0 -0 3.38813e-21)
(-0 -0 4.15216e-18)
(-0 -0 -5.53621e-18)
(-0 -0 4.15893e-18)
(-0 -0 2.77319e-18)
(-0 -0 -4.16571e-18)
(-0 -0 -1.39252e-18)
(-0 -0 2.78335e-18)
(-0 -0 -2.78843e-18)
(-0 -0 1.39591e-18)
(-0 -0 -1.39422e-18)
(-0 -0 1.3976e-18)
(-0 -0 4.1962e-18)
(-0 -0 -6.99819e-18)
(-0 -0 4.20128e-18)
(-0 -0 -1.39591e-18)
(-0 -0 -4.21145e-18)
(-0 -0 4.21145e-18)
(-0 -0 0)
(-0 -0 1.40607e-18)
(-0 -0 3.38813e-21)
(-0 -0 1.41116e-18)
(-0 -0 0)
(-0 -0 0)
(-0 -0 -1.41285e-18)
(-0 -0 -2.82909e-18)
(-0 -0 1.41285e-18)
(-0 -0 1.41793e-18)
(-0 -0 -1.41793e-18)
(-0 -0 1.69407e-21)
(-0 -0 1.42302e-18)
(-0 -0 -2.84434e-18)
(-0 -0 1.42132e-18)
(-0 -0 -1.69407e-21)
(-0 -0 4.28429e-18)
(-0 -0 -1.4264e-18)
(-0 -0 1.69407e-21)
(-0 -0 -2.86297e-18)
(-0 -0 -3.38813e-21)
(-0 -0 1.43657e-18)
(-0 -0 2.86805e-18)
(-0 -0 -2.87144e-18)
(-0 -0 0)
(-0 -0 1.43657e-18)
(-0 -0 -2.87991e-18)
(-0 -0 1.44334e-18)
(-0 -0 -1.43996e-18)
(-0 -0 -1.44334e-18)
(-0 -0 -1.44504e-18)
(-0 -0 1.44673e-18)
(-0 -0 4.34697e-18)
(-0 -0 -1.45012e-18)
(-0 -0 -2.90363e-18)
(-0 -0 4.35714e-18)
(-0 -0 3.38813e-21)
(-0 -0 0)
(-0 -0 -1.45351e-18)
(-0 -0 1.4569e-18)
(-0 -0 -1.4569e-18)
(-0 -0 -2.91888e-18)
(-0 -0 1.46367e-18)
(-0 -0 0)
(-0 -0 1.46706e-18)
(-0 -0 1.46367e-18)
(-0 -0 -1.46367e-18)
(-0 -0 -2.9392e-18)
(-0 -0 4.41474e-18)
(-0 -0 -5.89027e-18)
(-0 -0 5.89535e-18)
(-0 -0 -2.94767e-18)
(-0 -0 -2.95276e-18)
(-0 -0 7.38782e-18)
(-0 -0 -4.43506e-18)
(-0 -0 1.484e-18)
(-0 -0 -2.96292e-18)
(-0 -0 1.48231e-18)
(-0 -0 2.968e-18)
(-0 -0 -4.45709e-18)
(-0 -0 4.45878e-18)
(-0 -0 -4.46386e-18)
(-0 -0 2.97478e-18)
(-0 -0 2.97986e-18)
(-0 -0 -2.98833e-18)
(-0 -0 1.49417e-18)
(-0 -0 -4.48927e-18)
(-0 -0 2.98833e-18)
(-0 -0 -2.99511e-18)
(-0 -0 5.99699e-18)
(-0 -0 -3.00188e-18)
(-0 -0 3.00527e-18)
(-0 -0 -1.50772e-18)
(-0 -0 -4.51638e-18)
(-0 -0 0)
(-0 -0 3.01205e-18)
(-0 -0 -3.01883e-18)
(-0 -0 4.53332e-18)
(-0 -0 -3.02899e-18)
(-0 -0 3.38813e-21)
(-0 -0 3.02899e-18)
(-0 -0 -3.03238e-18)
(-0 -0 1.52127e-18)
(-0 -0 -4.55704e-18)
(-0 -0 1.52127e-18)
(-0 -0 1.52805e-18)
(-0 -0 -1.51449e-18)
(-0 -0 3.38813e-21)
(-0 -0 -3.38813e-21)
(-0 -0 3.05609e-18)
(-0 -0 -3.06287e-18)
(-0 -0 3.05948e-18)
(-0 -0 1.53482e-18)
(-0 -0 -4.60447e-18)
(-0 -0 -1.53482e-18)
(-0 -0 1.53482e-18)
(-0 -0 1.53482e-18)
(-0 -0 1.53482e-18)
(-0 -0 -3.07642e-18)
(-0 -0 4.63496e-18)
(-0 -0 -1.54499e-18)
(-0 -0 -1.5416e-18)
(-0 -0 -3.38813e-21)
(-0 -0 -3.09675e-18)
(-0 -0 7.75543e-18)
(-0 -0 -6.20706e-18)
(-0 -0 1.54838e-18)
(-0 -0 3.38813e-21)
(-0 -0 4.66885e-18)
(-0 -0 -4.67223e-18)
(-0 -0 3.11708e-18)
(-0 -0 -4.67223e-18)
(-0 -0 6.24094e-18)
(-0 -0 -4.68579e-18)
(-0 -0 3.13063e-18)
(-0 -0 -1.56193e-18)
(-0 -0 0)
(-0 -0 -1.56871e-18)
(-0 -0 -1.57548e-18)
(-0 -0 -1.56871e-18)
(-0 -0 3.14419e-18)
(-0 -0 1.57209e-18)
(-0 -0 3.38813e-21)
(-0 -0 -3.15774e-18)
(-0 -0 1.58226e-18)
(-0 -0 -1.58565e-18)
(-0 -0 3.1679e-18)
(-0 -0 0)
(-0 -0 -3.17129e-18)
(-0 -0 -3.38813e-21)
(-0 -0 1.58903e-18)
(-0 -0 3.18146e-18)
(-0 -0 -4.77388e-18)
(-0 -0 1.58903e-18)
(-0 -0 1.59581e-18)
(-0 -0 -3.18823e-18)
(-0 -0 -3.38813e-21)
(-0 -0 -1.60259e-18)
(-0 -0 4.79759e-18)
(-0 -0 -3.20517e-18)
(-0 -0 1.60259e-18)
(-0 -0 1.60597e-18)
(-0 -0 -3.21534e-18)
(-0 -0 0)
(-0 -0 -1.60936e-18)
(-0 -0 8.04681e-18)
(-0 -0 -6.44084e-18)
(-0 -0 4.84164e-18)
(-0 -0 -6.45778e-18)
(-0 -0 6.46117e-18)
(-0 -0 -1.61953e-18)
(-0 -0 1.61614e-18)
(-0 -0 -1.61953e-18)
(-0 -0 -4.86875e-18)
(-0 -0 8.11796e-18)
(-0 -0 -1.62969e-18)
(-0 -0 -3.25938e-18)
(-0 -0 -3.38813e-21)
(-0 -0 -1.63308e-18)
(-0 -0 4.89585e-18)
(-0 -0 -6.53571e-18)
(-0 -0 8.17895e-18)
(-0 -0 -4.9094e-18)
(-0 -0 4.9094e-18)
(-0 -0 -4.91618e-18)
(-0 -0 -1.64663e-18)
(-0 -0 3.28649e-18)
(-0 -0 -1.64324e-18)
(-0 -0 3.28649e-18)
(-0 -0 3.29665e-18)
(-0 -0 -3.29665e-18)
(-0 -0 -3.30004e-18)
(-0 -0 1.6568e-18)
(-0 -0 1.65002e-18)
(-0 -0 -3.30682e-18)
(-0 -0 1.6568e-18)
(-0 -0 -1.6568e-18)
(-0 -0 -3.31698e-18)
(-0 -0 3.32715e-18)
(-0 -0 1.66018e-18)
(-0 -0 -1.67035e-18)
(-0 -0 0)
(-0 -0 3.33392e-18)
(-0 -0 -3.33392e-18)
(-0 -0 3.34747e-18)
(-0 -0 -3.3407e-18)
(-0 -0 -1.67374e-18)
(-0 -0 3.35086e-18)
(-0 -0 -1.67713e-18)
(-0 -0 -3.38813e-21)
(-0 -0 3.38813e-21)
(-0 -0 3.36103e-18)
(-0 -0 -6.73222e-18)
(-0 -0 5.05509e-18)
(-0 -0 -1.6839e-18)
(-0 -0 3.37119e-18)
(-0 -0 -6.75255e-18)
(-0 -0 6.76271e-18)
(-0 -0 -3.38813e-18)
(-0 -0 3.38813e-18)
(-0 -0 -5.08559e-18)
(-0 -0 1.70084e-18)
(-0 -0 1.70084e-18)
(-0 -0 0)
(-0 -0 0)
(-0 -0 -3.40846e-18)
(-0 -0 6.81692e-18)
(-0 -0 -6.83047e-18)
(-0 -0 3.41185e-18)
(-0 -0 0)
(-0 -0 -3.42201e-18)
(-0 -0 6.85419e-18)
(-0 -0 -6.86097e-18)
(-0 -0 0)
(-0 -0 6.87113e-18)
(-0 -0 0)
(-0 -0 -3.44234e-18)
(-0 -0 -3.44573e-18)
(-0 -0 6.90162e-18)
(-0 -0 -6.89485e-18)
(-0 -0 3.38813e-21)
(-0 -0 3.45589e-18)
(-0 -0 0)
(-0 -0 0)
(-0 -0 3.46945e-18)
(-0 -0 -6.93889e-18)
(-0 -0 -3.38813e-21)
(-0 -0 -3.47961e-18)
(-0 -0 3.483e-18)
(-0 -0 0)
(-0 -0 3.48639e-18)
(-0 -0 3.38813e-21)
(-0 -0 -3.49655e-18)
(-0 -0 6.77626e-21)
(-0 -0 -3.38813e-21)
(-0 -0 0)
(-0 -0 0)
(-0 -0 0)
(-0 -0 0)
(-0 -0 3.51688e-18)
(-0 -0 0)
(-0 -0 3.38813e-21)
(-0 -0 0)
(-0 -0 -3.52705e-18)
(-0 -0 3.53382e-18)
(-0 -0 0)
(-0 -0 3.53721e-18)
(-0 -0 -3.5406e-18)
(-0 -0 0)
(-0 -0 3.54737e-18)
(-0 -0 -7.1083e-18)
(-0 -0 3.56431e-18)
(-0 -0 -3.55754e-18)
(-0 -0 3.56431e-18)
(-0 -0 -3.56431e-18)
(-0 -0 0)
(-0 -0 0)
(-0 -0 3.57448e-18)
(-0 -0 -3.38813e-21)
(-0 -0 -3.58803e-18)
(-0 -0 3.38813e-21)
(-0 -0 3.59142e-18)
(-0 -0 0)
(-0 -0 0)
(-0 -0 0)
(-0 -0 3.38813e-21)
(-0 -0 0)
(-0 -0 3.38813e-21)
(-0 -0 3.38813e-21)
(-0 -0 -3.61852e-18)
(-0 -0 0)
(-0 -0 -3.38813e-21)
(-0 -0 7.25399e-18)
(-0 -0 -3.62869e-18)
(-0 -0 -3.63547e-18)
(-0 -0 3.63885e-18)
(-0 -0 3.64224e-18)
(-0 -0 -3.64224e-18)
(-0 -0 3.65241e-18)
(-0 -0 -7.30142e-18)
(-0 -0 -3.38813e-21)
(-0 -0 3.65579e-18)
(-0 -0 3.66596e-18)
(-0 -0 -3.66257e-18)
(-0 -0 0)
(-0 -0 -3.67612e-18)
(-0 -0 3.67612e-18)
(-0 -0 0)
(-0 -0 -3.38813e-21)
(-0 -0 -3.67951e-18)
(-0 -0 3.38813e-21)
(-0 -0 7.38613e-18)
(-0 -0 -7.38613e-18)
(-0 -0 3.38813e-21)
(-0 -0 -3.38813e-21)
(-0 -0 3.70323e-18)
(-0 -0 -3.71e-18)
(-0 -0 3.38813e-21)
(-0 -0 3.38813e-21)
(-0 -0 3.72017e-18)
(-0 -0 -3.72694e-18)
(-0 -0 3.38813e-21)
(-0 -0 3.72694e-18)
(-0 -0 -3.73372e-18)
(-0 -0 -3.38813e-21)
(-0 -0 3.74389e-18)
(-0 -0 -3.74389e-18)
(-0 -0 3.74389e-18)
(-0 -0 0)
(-0 -0 3.38813e-21)
(-0 -0 0)
(-0 -0 -3.75744e-18)
(-0 -0 7.53182e-18)
(-0 -0 -7.53859e-18)
(-0 -0 3.77099e-18)
(-0 -0 -3.38813e-21)
(-0 -0 3.78116e-18)
(-0 -0 -3.78116e-18)
(-0 -0 -3.78116e-18)
(-0 -0 3.79132e-18)
(-0 -0 0)
(-0 -0 -3.79471e-18)
(-0 -0 7.60297e-18)
(-0 -0 -3.80826e-18)
(-0 -0 0)
(-0 -0 3.38813e-21)
(-0 -0 -3.81504e-18)
(-0 -0 3.81504e-18)
(-0 -0 -3.81842e-18)
(-0 -0 3.82859e-18)
(-0 -0 -3.83537e-18)
(-0 -0 3.83198e-18)
(-0 -0 -3.83875e-18)
(-0 -0 3.84553e-18)
(-0 -0 3.84214e-18)
(-0 -0 -3.85569e-18)
(-0 -0 -3.84892e-18)
(-0 -0 -3.38813e-21)
(-0 -0 0)
(-0 -0 3.86247e-18)
(-0 -0 -3.86586e-18)
(-0 -0 3.86586e-18)
(-0 -0 3.38813e-21)
(-0 -0 -3.87941e-18)
(-0 -0 3.87941e-18)
(-0 -0 -3.8828e-18)
(-0 -0 7.77915e-18)
(-0 -0 -3.88619e-18)
(-0 -0 -3.38813e-21)
(-0 -0 -3.89974e-18)
(-0 -0 3.90652e-18)
(-0 -0 -3.90652e-18)
(-0 -0 3.90652e-18)
(-0 -0 0)
(-0 -0 0)
(-0 -0 3.38813e-21)
(-0 -0 -3.92007e-18)
(-0 -0 0)
(-0 -0 3.93362e-18)
(-0 -0 -3.93362e-18)
(-0 -0 3.9404e-18)
(-0 -0 -3.94717e-18)
(-0 -0 -3.38813e-21)
(-0 -0 3.95395e-18)
(-0 -0 -3.96073e-18)
(-0 -0 3.95734e-18)
(-0 -0 0)
(-0 -0 0)
(-0 -0 3.38813e-21)
(-0 -0 0)
(-0 -0 -3.97767e-18)
(-0 -0 0)
(-0 -0 3.98444e-18)
(-0 -0 -3.98444e-18)
(-0 -0 -3.38813e-21)
(-0 -0 3.38813e-21)
(-0 -0 4.00138e-18)
(-0 -0 -3.38813e-21)
(-0 -0 0)
(-0 -0 -3.38813e-21)
(-0 -0 3.38813e-21)
(-0 -0 3.38813e-21)
(-0 -0 0)
(-0 -0 -4.02849e-18)
(-0 -0 4.0251e-18)
(-0 -0 0)
(-0 -0 -4.03865e-18)
(-0 -0 4.03865e-18)
(-0 -0 4.04543e-18)
(-0 -0 0)
(-0 -0 -8.10441e-18)
(-0 -0 4.05221e-18)
(-0 -0 -3.38813e-21)
(-0 -0 0)
(-0 -0 -3.38813e-21)
(-0 -0 -4.07253e-18)
(-0 -0 -3.38813e-21)
(-0 -0 4.0827e-18)
(-0 -0 -4.08609e-18)
(-0 -0 -3.38813e-21)
(-0 -0 -3.38813e-21)
(-0 -0 4.09964e-18)
(-0 -0 -4.09625e-18)
(-0 -0 4.10303e-18)
(-0 -0 3.38813e-21)
(-0 -0 0)
(-0 -0 0)
(-0 -0 -3.38813e-21)
(-0 -0 -4.12336e-18)
(-0 -0 4.12336e-18)
(-0 -0 0)
(-0 -0 -4.12674e-18)
(-0 -0 4.13352e-18)
(-0 -0 3.38813e-21)
(-0 -0 -4.14707e-18)
(-0 -0 4.15046e-18)
(-0 -0 -4.15046e-18)
(-0 -0 0)
(-0 -0 8.32125e-18)
(-0 -0 -8.31786e-18)
(-0 -0 4.1674e-18)
(-0 -0 -3.38813e-21)
(-0 -0 -4.17079e-18)
(-0 -0 4.17757e-18)
(-0 -0 3.38813e-21)
(-0 -0 0)
(-0 -0 0)
(-0 -0 -4.19451e-18)
(-0 -0 4.20128e-18)
(-0 -0 3.38813e-21)
(-0 -0 0)
(-0 -0 -4.20806e-18)
(-0 -0 0)
(-0 -0 4.21484e-18)
(-0 -0 -3.38813e-21)
(-0 -0 0)
(-0 -0 -4.225e-18)
(-0 -0 4.23516e-18)
(-0 -0 -4.23855e-18)
(-0 -0 0)
(-0 -0 4.24533e-18)
(-0 -0 0)
(-0 -0 3.38813e-21)
(-0 -0 -6.77626e-21)
(-0 -0 3.38813e-21)
(-0 -0 -4.26227e-18)
(-0 -0 -3.38813e-21)
(-0 -0 4.27243e-18)
(-0 -0 3.38813e-21)
(-0 -0 -4.27921e-18)
(-0 -0 4.2826e-18)
(-0 -0 -4.29276e-18)
(-0 -0 6.77626e-21)
(-0 -0 0)
(-0 -0 -3.38813e-21)
(-0 -0 -3.38813e-21)
(-0 -0 4.3097e-18)
(-0 -0 0)
(-0 -0 3.38813e-21)
(-0 -0 3.38813e-21)
(-0 -0 -4.32326e-18)
(-0 -0 4.33003e-18)
(-0 -0 0)
(-0 -0 -3.38813e-21)
(-0 -0 0)
(-0 -0 3.38813e-21)
(-0 -0 0)
(-0 -0 0)
(-0 -0 3.38813e-21)
(-0 -0 -4.36391e-18)
(-0 -0 4.36391e-18)
(-0 -0 -4.37069e-18)
(-0 -0 3.38813e-21)
(-0 -0 4.38085e-18)
(-0 -0 -4.38763e-18)
(-0 -0 0)
(-0 -0 4.39102e-18)
(-0 -0 -3.38813e-21)
(-0 -0 3.38813e-21)
(-0 -0 -4.40796e-18)
(-0 -0 4.40796e-18)
(-0 -0 -4.40796e-18)
(-0 -0 3.38813e-21)
(-0 -0 3.38813e-21)
(-0 -0 4.4249e-18)
(-0 -0 0)
(-0 -0 0)
(-0 -0 3.38813e-21)
(-0 -0 -3.38813e-21)
(-0 -0 -3.38813e-21)
(-0 -0 0)
(-0 -0 3.38813e-21)
(-0 -0 -4.45878e-18)
(-0 -0 4.45878e-18)
(-0 -0 -4.46895e-18)
(-0 -0 -3.38813e-21)
(-0 -0 4.46895e-18)
(-0 -0 0)
(-0 -0 0)
(-0 -0 -3.38813e-21)
(-0 -0 -4.48589e-18)
(-0 -0 4.49605e-18)
(-0 -0 -4.49944e-18)
(-0 -0 0)
(-0 -0 4.49944e-18)
(-0 -0 -4.51638e-18)
(-0 -0 0)
(-0 -0 4.51299e-18)
(-0 -0 6.77626e-21)
(-0 -0 3.38813e-21)
(-0 -0 0)
(-0 -0 0)
(-0 -0 0)
(-0 -0 0)
(-0 -0 -3.38813e-21)
(-0 -0 0)
(-0 -0 -6.77626e-21)
(-0 -0 0)
(-0 -0 3.38813e-21)
(-0 -0 -3.38813e-21)
(-0 -0 -4.57398e-18)
(-0 -0 0)
(-0 -0 0)
(-0 -0 4.58753e-18)
(-0 -0 0)
(-0 -0 -3.38813e-21)
(-0 -0 -4.60447e-18)
(-0 -0 4.60447e-18)
(-0 -0 -4.61464e-18)
(-0 -0 -3.38813e-21)
(-0 -0 4.61802e-18)
(-0 -0 -3.38813e-21)
(-0 -0 -3.38813e-21)
(-0 -0 0)
(-0 -0 -4.63835e-18)
(-0 -0 3.38813e-21)
(-0 -0 4.64513e-18)
(-0 -0 -4.6519e-18)
(-0 -0 4.65529e-18)
(-0 -0 -4.66207e-18)
(-0 -0 -3.38813e-21)
(-0 -0 6.77626e-21)
(-0 -0 4.67562e-18)
(-0 -0 -4.67223e-18)
(-0 -0 4.67901e-18)
(-0 -0 6.77626e-21)
(-0 -0 0)
(-0 -0 0)
(-0 -0 -4.69934e-18)
(-0 -0 4.69595e-18)
(-0 -0 -4.7095e-18)
(-0 -0 -3.38813e-21)
(-0 -0 4.7095e-18)
(-0 -0 -4.71628e-18)
(-0 -0 4.71967e-18)
(-0 -0 -4.72644e-18)
(-0 -0 4.72983e-18)
(-0 -0 0)
(-0 -0 -3.38813e-21)
(-0 -0 3.38813e-21)
(-0 -0 -4.75694e-18)
(-0 -0 4.75355e-18)
(-0 -0 3.38813e-21)
(-0 -0 0)
(-0 -0 -4.7671e-18)
(-0 -0 0)
(-0 -0 4.77727e-18)
(-0 -0 0)
(-0 -0 0)
(-0 -0 3.38813e-21)
(-0 -0 -4.79421e-18)
(-0 -0 4.80098e-18)
(-0 -0 3.38813e-21)
(-0 -0 3.38813e-21)
(-0 -0 -4.81792e-18)
(-0 -0 4.81792e-18)
(-0 -0 -4.8247e-18)
(-0 -0 4.8247e-18)
(-0 -0 -4.8247e-18)
(-0 -0 4.84164e-18)
(-0 -0 6.77626e-21)
(-0 -0 0)
(-0 -0 0)
(-0 -0 -4.85519e-18)
(-0 -0 4.86536e-18)
(-0 -0 3.38813e-21)
(-0 -0 -4.86536e-18)
(-0 -0 0)
(-0 -0 4.87552e-18)
(-0 -0 -4.87891e-18)
(-0 -0 4.8823e-18)
(-0 -0 -3.38813e-21)
(-0 -0 0)
(-0 -0 0)
(-0 -0 -3.38813e-21)
(-0 -0 -4.90601e-18)
(-0 -0 4.91957e-18)
(-0 -0 -4.91957e-18)
(-0 -0 4.91957e-18)
(-0 -0 -6.77626e-21)
(-0 -0 0)
(-0 -0 0)
(-0 -0 -4.9399e-18)
(-0 -0 6.77626e-21)
(-0 -0 4.95345e-18)
(-0 -0 0)
(-0 -0 -4.96361e-18)
(-0 -0 4.967e-18)
(-0 -0 0)
(-0 -0 0)
(-0 -0 -6.77626e-21)
(-0 -0 -3.38813e-21)
(-0 -0 3.38813e-21)
(-0 -0 0)
(-0 -0 -3.38813e-21)
(-0 -0 -5.00766e-18)
(-0 -0 5.00088e-18)
(-0 -0 -5.01105e-18)
(-0 -0 5.01105e-18)
(-0 -0 -5.02121e-18)
(-0 -0 -3.38813e-21)
(-0 -0 3.38813e-21)
(-0 -0 0)
(-0 -0 5.03476e-18)
(-0 -0 -5.04154e-18)
(-0 -0 -6.77626e-21)
(-0 -0 -3.38813e-21)
(-0 -0 5.05509e-18)
(-0 -0 -3.38813e-21)
(-0 -0 3.38813e-21)
(-0 -0 3.38813e-21)
(-0 -0 -6.77626e-21)
(-0 -0 -5.08559e-18)
(-0 -0 5.08897e-18)
(-0 -0 -5.09236e-18)
(-0 -0 5.10253e-18)
(-0 -0 -5.10253e-18)
(-0 -0 5.10591e-18)
(-0 -0 -6.77626e-21)
(-0 -0 -5.11269e-18)
(-0 -0 5.11947e-18)
(-0 -0 3.38813e-21)
(-0 -0 3.38813e-21)
(-0 -0 -3.38813e-21)
(-0 -0 -3.38813e-21)
(-0 -0 0)
(-0 -0 0)
(-0 -0 0)
(-0 -0 -5.15674e-18)
(-0 -0 5.17029e-18)
(-0 -0 0)
(-0 -0 -3.38813e-21)
(-0 -0 -3.38813e-21)
(-0 -0 0)
(-0 -0 0)
(-0 -0 -5.19401e-18)
(-0 -0 6.77626e-21)
(-0 -0 5.19739e-18)
(-0 -0 0)
(-0 -0 0)
(-0 -0 0)
(-0 -0 -5.22789e-18)
(-0 -0 5.22789e-18)
(-0 -0 -5.23128e-18)
(-0 -0 5.23466e-18)
(-0 -0 3.38813e-21)
(-0 -0 0)
(-0 -0 0)
(-0 -0 -5.25499e-18)
(-0 -0 3.38813e-21)
(-0 -0 0)
(-0 -0 5.27532e-18)
(-0 -0 3.38813e-21)
(-0 -0 0)
(-0 -0 3.38813e-21)
(-0 -0 -5.29226e-18)
(-0 -0 5.29904e-18)
(-0 -0 0)
(-0 -0 -5.30581e-18)
(-0 -0 5.30581e-18)
(-0 -0 -5.31598e-18)
(-0 -0 5.31937e-18)
(-0 -0 -5.32614e-18)
(-0 -0 5.32614e-18)
(-0 -0 -5.32953e-18)
(-0 -0 5.3397e-18)
(-0 -0 -3.38813e-21)
(-0 -0 0)
(-0 -0 -5.35325e-18)
(-0 -0 3.38813e-21)
(-0 -0 5.3668e-18)
(-0 -0 0)
(-0 -0 -5.38035e-18)
(-0 -0 5.38035e-18)
(-0 -0 -5.39052e-18)
(-0 -0 5.39391e-18)
(-0 -0 -5.39729e-18)
(-0 -0 5.39729e-18)
(-0 -0 -5.40407e-18)
(-0 -0 -3.38813e-21)
(-0 -0 0)
(-0 -0 5.41423e-18)
(-0 -0 3.38813e-21)
(-0 -0 0)
(-0 -0 3.38813e-21)
(-0 -0 -5.44134e-18)
(-0 -0 5.4515e-18)
(-0 -0 0)
(-0 -0 -3.38813e-21)
(-0 -0 3.38813e-21)
(-0 -0 -5.46844e-18)
(-0 -0 5.47183e-18)
(-0 -0 -5.47183e-18)
(-0 -0 5.48877e-18)
(-0 -0 3.38813e-21)
(-0 -0 -5.49216e-18)
(-0 -0 5.49894e-18)
(-0 -0 -5.50233e-18)
(-0 -0 5.5091e-18)
(-0 -0 -5.51249e-18)
(-0 -0 5.51927e-18)
(-0 -0 -6.77626e-21)
(-0 -0 -5.52943e-18)
(-0 -0 5.53282e-18)
(-0 -0 6.77626e-21)
(-0 -0 0)
(-0 -0 6.77626e-21)
(-0 -0 -5.55992e-18)
(-0 -0 5.56331e-18)
(-0 -0 3.38813e-21)