/*--------------------------------*- C++ -*----------------------------------*\
| =========                 |                                                 |
| \\      /  F ield         | OpenFOAM: The Open Source CFD Toolbox           |
|  \\    /   O peration     | Version:  v2012                                 |
|   \\  /    A nd           | Website:  www.openfoam.com                      |
|    \\/     M anipulation  |                                                 |
\*---------------------------------------------------------------------------*/
FoamFile
{
    version     2.0;
    format      ascii;
    class       volVectorField;
    location    "49";
    object      U_ver;
}
// * * * * * * * * * * * * * * * * * * * * * * * * * * * * * * * * * * * * * //

dimensions      [0 1 -1 0 0 0 0];


internalField   nonuniform List<vector> 
100
(
(-0 -0 3.85601e-06)
(-0 -0 3.856e-06)
(-0 -0 3.856e-06)
(-0 -0 3.856e-06)
(-0 -0 3.856e-06)
(-0 -0 3.856e-06)
(-0 -0 3.856e-06)
(-0 -0 3.856e-06)
(-0 -0 3.856e-06)
(-0 -0 3.856e-06)
(-0 -0 3.856e-06)
(-0 -0 3.856e-06)
(-0 -0 3.856e-06)
(-0 -0 3.856e-06)
(-0 -0 3.856e-06)
(-0 -0 3.856e-06)
(-0 -0 3.856e-06)
(-0 -0 3.856e-06)
(-0 -0 3.856e-06)
(-0 -0 3.856e-06)
(-0 -0 3.856e-06)
(-0 -0 3.856e-06)
(-0 -0 3.856e-06)
(-0 -0 3.856e-06)
(-0 -0 3.856e-06)
(-0 -0 3.856e-06)
(-0 -0 3.856e-06)
(-0 -0 3.856e-06)
(-0 -0 3.856e-06)
(-0 -0 3.856e-06)
(-0 -0 3.856e-06)
(-0 -0 3.856e-06)
(-0 -0 3.856e-06)
(-0 -0 3.856e-06)
(-0 -0 3.856e-06)
(-0 -0 3.856e-06)
(-0 -0 3.856e-06)
(-0 -0 3.856e-06)
(-0 -0 3.856e-06)
(-0 -0 3.856e-06)
(-0 -0 3.856e-06)
(-0 -0 3.856e-06)
(-0 -0 3.856e-06)
(-0 -0 3.856e-06)
(-0 -0 3.856e-06)
(-0 -0 3.856e-06)
(-0 -0 3.856e-06)
(-0 -0 3.856e-06)
(-0 -0 3.856e-06)
(-0 -0 3.856e-06)
(-0 -0 3.856e-06)
(-0 -0 3.856e-06)
(-0 -0 3.856e-06)
(-0 -0 3.856e-06)
(-0 -0 3.856e-06)
(-0 -0 3.856e-06)
(-0 -0 3.856e-06)
(-0 -0 3.856e-06)
(-0 -0 3.856e-06)
(-0 -0 3.856e-06)
(-0 -0 3.856e-06)
(-0 -0 3.856e-06)
(-0 -0 3.856e-06)
(-0 -0 3.856e-06)
(-0 -0 3.856e-06)
(-0 -0 3.856e-06)
(-0 -0 3.856e-06)
(-0 -0 3.856e-06)
(-0 -0 3.856e-06)
(-0 -0 3.856e-06)
(-0 -0 3.856e-06)
(-0 -0 3.856e-06)
(-0 -0 3.856e-06)
(-0 -0 3.856e-06)
(-0 -0 3.856e-06)
(-0 -0 3.856e-06)
(-0 -0 3.856e-06)
(-0 -0 3.856e-06)
(-0 -0 3.856e-06)
(-0 -0 3.856e-06)
(-0 -0 3.856e-06)
(-0 -0 3.856e-06)
(-0 -0 3.856e-06)
(-0 -0 3.856e-06)
(-0 -0 3.856e-06)
(-0 -0 3.856e-06)
(-0 -0 3.856e-06)
(-0 -0 3.856e-06)
(-0 -0 3.856e-06)
(-0 -0 3.856e-06)
(-0 -0 3.856e-06)
(-0 -0 3.856e-06)
(-0 -0 3.856e-06)
(-0 -0 3.856e-06)
(-0 -0 3.856e-06)
(-0 -0 3.856e-06)
(-0 -0 3.856e-06)
(-0 -0 3.856e-06)
(-0 -0 3.856e-06)
(-0 -0 3.85601e-06)
)
;

boundaryField
{
    bottom
    {
        type            calculated;
        value           uniform (-0 -0 3.856e-06);
    }
    top
    {
        type            calculated;
        value           uniform (-0 -0 3.856e-06);
    }
    sidesX
    {
        type            empty;
    }
    sidesY
    {
        type            empty;
    }
}


// ************************************************************************* //
