/*--------------------------------*- C++ -*----------------------------------*\
| =========                 |                                                 |
| \\      /  F ield         | OpenFOAM: The Open Source CFD Toolbox           |
|  \\    /   O peration     | Version:  v2012                                 |
|   \\  /    A nd           | Website:  www.openfoam.com                      |
|    \\/     M anipulation  |                                                 |
\*---------------------------------------------------------------------------*/
FoamFile
{
    version     2.0;
    format      ascii;
    class       volScalarField;
    location    "49";
    object      wb;
}
// * * * * * * * * * * * * * * * * * * * * * * * * * * * * * * * * * * * * * //

dimensions      [0 0 0 0 0 0 0];


internalField   nonuniform List<scalar> 
100
(
0.202642
0.20794
0.213251
0.218575
0.223913
0.229263
0.234627
0.240005
0.245396
0.2508
0.256218
0.261649
0.267093
0.272552
0.278024
0.283509
0.289008
0.294521
0.300048
0.305588
0.311142
0.31671
0.322292
0.327888
0.333498
0.339121
0.344759
0.350411
0.356077
0.361757
0.367451
0.373159
0.378881
0.384618
0.390369
0.396135
0.401914
0.407708
0.413517
0.41934
0.425177
0.431029
0.436896
0.442777
0.448673
0.454584
0.460509
0.466449
0.472404
0.478374
0.484358
0.490358
0.496372
0.502401
0.508446
0.514505
0.52058
0.52667
0.532774
0.538894
0.54503
0.55118
0.557346
0.563528
0.569724
0.575936
0.582164
0.588407
0.594666
0.60094
0.60723
0.613535
0.619856
0.626193
0.632546
0.638915
0.645299
0.651699
0.658116
0.664548
0.670996
0.677461
0.683941
0.690438
0.69695
0.703479
0.710025
0.716586
0.723164
0.729758
0.736369
0.742996
0.74964
0.7563
0.762977
0.76967
0.776381
0.783107
0.789851
0.796611
)
;

boundaryField
{
    bottom
    {
        type            calculated;
        value           uniform 0.2;
    }
    top
    {
        type            calculated;
        value           uniform 0.8;
    }
    sidesX
    {
        type            empty;
    }
    sidesY
    {
        type            empty;
    }
}


// ************************************************************************* //
