/*--------------------------------*- C++ -*----------------------------------*\
| =========                 |                                                 |
| \\      /  F ield         | OpenFOAM: The Open Source CFD Toolbox           |
|  \\    /   O peration     | Version:  v2112                                 |
|   \\  /    A nd           | Website:  www.openfoam.com                     |
|    \\/     M anipulation  |                                                 |
\*---------------------------------------------------------------------------*/
FoamFile
{
    version     2.0;
    format      ascii;
    class       volVectorField;
    location    "0";
    object      U;
}
// * * * * * * * * * * * * * * * * * * * * * * * * * * * * * * * * * * * * * //

dimensions      [0 1 -1 0 0 0 0];

internalField   nonuniform List<vector>
300
(
(0 0 0.0000043759506394)
(0 0 0.0000043718364587)
(0 0 0.0000043677300068)
(0 0 0.0000043636312620)
(0 0 0.0000043595402027)
(0 0 0.0000043554568072)
(0 0 0.0000043513810540)
(0 0 0.0000043473129217)
(0 0 0.0000043432523890)
(0 0 0.0000043391994345)
(0 0 0.0000043351540371)
(0 0 0.0000043311161757)
(0 0 0.0000043270858291)
(0 0 0.0000043230629765)
(0 0 0.0000043190475970)
(0 0 0.0000043150396698)
(0 0 0.0000043110391740)
(0 0 0.0000043070460892)
(0 0 0.0000043030603947)
(0 0 0.0000042990820700)
(0 0 0.0000042951110947)
(0 0 0.0000042911474485)
(0 0 0.0000042871911110)
(0 0 0.0000042832420622)
(0 0 0.0000042793002817)
(0 0 0.0000042753657497)
(0 0 0.0000042714384462)
(0 0 0.0000042675183511)
(0 0 0.0000042636054448)
(0 0 0.0000042596997074)
(0 0 0.0000042558011193)
(0 0 0.0000042519096608)
(0 0 0.0000042480253124)
(0 0 0.0000042441480547)
(0 0 0.0000042402778682)
(0 0 0.0000042364147337)
(0 0 0.0000042325586318)
(0 0 0.0000042287095434)
(0 0 0.0000042248674494)
(0 0 0.0000042210323306)
(0 0 0.0000042172041682)
(0 0 0.0000042133829433)
(0 0 0.0000042095686369)
(0 0 0.0000042057612303)
(0 0 0.0000042019607048)
(0 0 0.0000041981670418)
(0 0 0.0000041943802227)
(0 0 0.0000041906002290)
(0 0 0.0000041868270423)
(0 0 0.0000041830606441)
(0 0 0.0000041793010163)
(0 0 0.0000041755481404)
(0 0 0.0000041718019985)
(0 0 0.0000041680625723)
(0 0 0.0000041643298438)
(0 0 0.0000041606037951)
(0 0 0.0000041568844082)
(0 0 0.0000041531716653)
(0 0 0.0000041494655486)
(0 0 0.0000041457660404)
(0 0 0.0000041420731229)
(0 0 0.0000041383867787)
(0 0 0.0000041347069901)
(0 0 0.0000041310337398)
(0 0 0.0000041273670103)
(0 0 0.0000041237067842)
(0 0 0.0000041200530442)
(0 0 0.0000041164057732)
(0 0 0.0000041127649540)
(0 0 0.0000041091305694)
(0 0 0.0000041055026025)
(0 0 0.0000041018810362)
(0 0 0.0000040982658536)
(0 0 0.0000040946570379)
(0 0 0.0000040910545722)
(0 0 0.0000040874584399)
(0 0 0.0000040838686241)
(0 0 0.0000040802851083)
(0 0 0.0000040767078760)
(0 0 0.0000040731369105)
(0 0 0.0000040695721955)
(0 0 0.0000040660137146)
(0 0 0.0000040624614514)
(0 0 0.0000040589153896)
(0 0 0.0000040553755130)
(0 0 0.0000040518418055)
(0 0 0.0000040483142509)
(0 0 0.0000040447928331)
(0 0 0.0000040412775363)
(0 0 0.0000040377683443)
(0 0 0.0000040342652414)
(0 0 0.0000040307682117)
(0 0 0.0000040272772395)
(0 0 0.0000040237923089)
(0 0 0.0000040203134043)
(0 0 0.0000040168405102)
(0 0 0.0000040133736109)
(0 0 0.0000040099126910)
(0 0 0.0000040064577349)
(0 0 0.0000040030087273)
(0 0 0.0000039995656529)
(0 0 0.0000039961284962)
(0 0 0.0000039926972422)
(0 0 0.0000039892718756)
(0 0 0.0000039858523812)
(0 0 0.0000039824387440)
(0 0 0.0000039790309490)
(0 0 0.0000039756289811)
(0 0 0.0000039722328254)
(0 0 0.0000039688424670)
(0 0 0.0000039654578912)
(0 0 0.0000039620790831)
(0 0 0.0000039587060279)
(0 0 0.0000039553387111)
(0 0 0.0000039519771180)
(0 0 0.0000039486212339)
(0 0 0.0000039452710445)
(0 0 0.0000039419265351)
(0 0 0.0000039385876914)
(0 0 0.0000039352544989)
(0 0 0.0000039319269434)
(0 0 0.0000039286050105)
(0 0 0.0000039252886860)
(0 0 0.0000039219779558)
(0 0 0.0000039186728056)
(0 0 0.0000039153732214)
(0 0 0.0000039120791891)
(0 0 0.0000039087906948)
(0 0 0.0000039055077244)
(0 0 0.0000039022302641)
(0 0 0.0000038989583000)
(0 0 0.0000038956918183)
(0 0 0.0000038924308052)
(0 0 0.0000038891752470)
(0 0 0.0000038859251300)
(0 0 0.0000038826804407)
(0 0 0.0000038794411653)
(0 0 0.0000038762072905)
(0 0 0.0000038729788026)
(0 0 0.0000038697556882)
(0 0 0.0000038665379340)
(0 0 0.0000038633255265)
(0 0 0.0000038601184525)
(0 0 0.0000038569166987)
(0 0 0.0000038537202518)
(0 0 0.0000038505290987)
(0 0 0.0000038473432262)
(0 0 0.0000038441626213)
(0 0 0.0000038409872708)
(0 0 0.0000038378171618)
(0 0 0.0000038346522813)
(0 0 0.0000038314926164)
(0 0 0.0000038283381541)
(0 0 0.0000038251888818)
(0 0 0.0000038220447865)
(0 0 0.0000038189058554)
(0 0 0.0000038157720760)
(0 0 0.0000038126434355)
(0 0 0.0000038095199213)
(0 0 0.0000038064015208)
(0 0 0.0000038032882214)
(0 0 0.0000038001800107)
(0 0 0.0000037970768761)
(0 0 0.0000037939788053)
(0 0 0.0000037908857859)
(0 0 0.0000037877978055)
(0 0 0.0000037847148518)
(0 0 0.0000037816369126)
(0 0 0.0000037785639756)
(0 0 0.0000037754960287)
(0 0 0.0000037724330596)
(0 0 0.0000037693750564)
(0 0 0.0000037663220069)
(0 0 0.0000037632738991)
(0 0 0.0000037602307210)
(0 0 0.0000037571924607)
(0 0 0.0000037541591062)
(0 0 0.0000037511306457)
(0 0 0.0000037481070674)
(0 0 0.0000037450883594)
(0 0 0.0000037420745100)
(0 0 0.0000037390655074)
(0 0 0.0000037360613401)
(0 0 0.0000037330619963)
(0 0 0.0000037300674645)
(0 0 0.0000037270777330)
(0 0 0.0000037240927903)
(0 0 0.0000037211126250)
(0 0 0.0000037181372256)
(0 0 0.0000037151665806)
(0 0 0.0000037122006787)
(0 0 0.0000037092395085)
(0 0 0.0000037062830587)
(0 0 0.0000037033313180)
(0 0 0.0000037003842753)
(0 0 0.0000036974419191)
(0 0 0.0000036945042385)
(0 0 0.0000036915712223)
(0 0 0.0000036886428593)
(0 0 0.0000036857191385)
(0 0 0.0000036828000489)
(0 0 0.0000036798855795)
(0 0 0.0000036769757193)
(0 0 0.0000036740704574)
(0 0 0.0000036711697829)
(0 0 0.0000036682736850)
(0 0 0.0000036653821527)
(0 0 0.0000036624951754)
(0 0 0.0000036596127423)
(0 0 0.0000036567348426)
(0 0 0.0000036538614657)
(0 0 0.0000036509926010)
(0 0 0.0000036481282377)
(0 0 0.0000036452683654)
(0 0 0.0000036424129734)
(0 0 0.0000036395620512)
(0 0 0.0000036367155884)
(0 0 0.0000036338735745)
(0 0 0.0000036310359991)
(0 0 0.0000036282028517)
(0 0 0.0000036253741221)
(0 0 0.0000036225497999)
(0 0 0.0000036197298748)
(0 0 0.0000036169143365)
(0 0 0.0000036141031749)
(0 0 0.0000036112963797)
(0 0 0.0000036084939407)
(0 0 0.0000036056958479)
(0 0 0.0000036029020911)
(0 0 0.0000036001126603)
(0 0 0.0000035973275453)
(0 0 0.0000035945467363)
(0 0 0.0000035917702232)
(0 0 0.0000035889979961)
(0 0 0.0000035862300450)
(0 0 0.0000035834663601)
(0 0 0.0000035807069316)
(0 0 0.0000035779517495)
(0 0 0.0000035752008041)
(0 0 0.0000035724540857)
(0 0 0.0000035697115844)
(0 0 0.0000035669732907)
(0 0 0.0000035642391948)
(0 0 0.0000035615092870)
(0 0 0.0000035587835579)
(0 0 0.0000035560619977)
(0 0 0.0000035533445969)
(0 0 0.0000035506313460)
(0 0 0.0000035479222354)
(0 0 0.0000035452172558)
(0 0 0.0000035425163977)
(0 0 0.0000035398196517)
(0 0 0.0000035371270083)
(0 0 0.0000035344384582)
(0 0 0.0000035317539922)
(0 0 0.0000035290736008)
(0 0 0.0000035263972749)
(0 0 0.0000035237250052)
(0 0 0.0000035210567824)
(0 0 0.0000035183925975)
(0 0 0.0000035157324411)
(0 0 0.0000035130763043)
(0 0 0.0000035104241778)
(0 0 0.0000035077760527)
(0 0 0.0000035051319198)
(0 0 0.0000035024917702)
(0 0 0.0000034998555949)
(0 0 0.0000034972233848)
(0 0 0.0000034945951311)
(0 0 0.0000034919708248)
(0 0 0.0000034893504570)
(0 0 0.0000034867340190)
(0 0 0.0000034841215018)
(0 0 0.0000034815128966)
(0 0 0.0000034789081948)
(0 0 0.0000034763073874)
(0 0 0.0000034737104658)
(0 0 0.0000034711174213)
(0 0 0.0000034685282452)
(0 0 0.0000034659429289)
(0 0 0.0000034633614637)
(0 0 0.0000034607838410)
(0 0 0.0000034582100523)
(0 0 0.0000034556400890)
(0 0 0.0000034530739426)
(0 0 0.0000034505116046)
(0 0 0.0000034479530666)
(0 0 0.0000034453983199)
(0 0 0.0000034428473564)
(0 0 0.0000034403001675)
(0 0 0.0000034377567449)
(0 0 0.0000034352170802)
(0 0 0.0000034326811652)
(0 0 0.0000034301489915)
(0 0 0.0000034276205508)
(0 0 0.0000034250958349)
(0 0 0.0000034225748356)
(0 0 0.0000034200575446)
(0 0 0.0000034175439539)
(0 0 0.0000034150340552)
);

boundaryField
{
    top
    {
        type            fixedValue;
        value           uniform (0 0 0.0000043780106350);  // Valor analítico EXATO no inlet (z=0), wa=0.8

    }
    bottom
    {
        type            fixedValue;
        value           uniform (0 0 0.0000034137804878);  // Valor analítico EXATO no outlet (z=1.0), wa=0.2
    }
    walls
    {
        type            noSlip;
        value           uniform (0 0 0);
    }
    frontAndBack
    {
        type            empty;
    }
}

// ************************************************************************* //
