/*--------------------------------*- C++ -*----------------------------------*\
| =========                 |                                                 |
| \\      /  F ield         | OpenFOAM: The Open Source CFD Toolbox           |
|  \\    /   O peration     | Version:  v2012                                 |
|   \\  /    A nd           | Website:  www.openfoam.com                      |
|    \\/     M anipulation  |                                                 |
\*---------------------------------------------------------------------------*/
FoamFile
{
    version     2.0;
    format      ascii;
    class       volScalarField;
    location    "49.5";
    object      coeff2;
}
// * * * * * * * * * * * * * * * * * * * * * * * * * * * * * * * * * * * * * //

dimensions      [0 2 -1 0 0 0 0];


internalField   nonuniform List<scalar> 
100
(
-2.29155e-05
-2.28296e-05
-2.2744e-05
-2.26587e-05
-2.25738e-05
-2.24891e-05
-2.24048e-05
-2.23208e-05
-2.22372e-05
-2.21538e-05
-2.20707e-05
-2.1988e-05
-2.19056e-05
-2.18234e-05
-2.17416e-05
-2.16601e-05
-2.15789e-05
-2.1498e-05
-2.14174e-05
-2.13371e-05
-2.12571e-05
-2.11774e-05
-2.1098e-05
-2.10189e-05
-2.09401e-05
-2.08616e-05
-2.07834e-05
-2.07055e-05
-2.06279e-05
-2.05506e-05
-2.04735e-05
-2.03968e-05
-2.03203e-05
-2.02441e-05
-2.01682e-05
-2.00926e-05
-2.00173e-05
-1.99422e-05
-1.98675e-05
-1.9793e-05
-1.97188e-05
-1.96449e-05
-1.95712e-05
-1.94978e-05
-1.94247e-05
-1.93519e-05
-1.92794e-05
-1.92071e-05
-1.91351e-05
-1.90633e-05
-1.89919e-05
-1.89207e-05
-1.88497e-05
-1.87791e-05
-1.87087e-05
-1.86385e-05
-1.85687e-05
-1.8499e-05
-1.84297e-05
-1.83606e-05
-1.82918e-05
-1.82232e-05
-1.81549e-05
-1.80868e-05
-1.8019e-05
-1.79515e-05
-1.78842e-05
-1.78171e-05
-1.77503e-05
-1.76838e-05
-1.76175e-05
-1.75514e-05
-1.74856e-05
-1.74201e-05
-1.73548e-05
-1.72897e-05
-1.72249e-05
-1.71603e-05
-1.7096e-05
-1.70319e-05
-1.6968e-05
-1.69044e-05
-1.6841e-05
-1.67779e-05
-1.6715e-05
-1.66523e-05
-1.65899e-05
-1.65277e-05
-1.64657e-05
-1.6404e-05
-1.63425e-05
-1.62813e-05
-1.62202e-05
-1.61594e-05
-1.60988e-05
-1.60385e-05
-1.59783e-05
-1.59184e-05
-1.58588e-05
-1.57993e-05
)
;

boundaryField
{
    bottom
    {
        type            calculated;
        value           uniform -2.29585e-05;
    }
    top
    {
        type            calculated;
        value           uniform -1.57696e-05;
    }
    sidesX
    {
        type            empty;
    }
    sidesY
    {
        type            empty;
    }
}


// ************************************************************************* //
