/*--------------------------------*- C++ -*----------------------------------*\
| =========                 |                                                 |
| \\      /  F ield         | OpenFOAM: The Open Source CFD Toolbox           |
|  \\    /   O peration     | Version:  v2012                                 |
|   \\  /    A nd           | Website:  www.openfoam.com                      |
|    \\/     M anipulation  |                                                 |
\*---------------------------------------------------------------------------*/
FoamFile
{
    version     2.0;
    format      ascii;
    class       volVectorField;
    location    "49";
    object      Nb;
}
// * * * * * * * * * * * * * * * * * * * * * * * * * * * * * * * * * * * * * //

dimensions      [1 -2 -1 0 0 0 0];


internalField   nonuniform List<vector> 
3200
(
(-0 -0 -3.41354e-19)
(-0 -0 -1.02364e-18)
(-0 -0 2.56397e-18)
(-0 -0 -3.59015e-18)
(-0 -0 3.08405e-18)
(-0 -0 -1.71355e-18)
(-0 -0 -1.37092e-18)
(-0 -0 1.02787e-18)
(-0 -0 1.70254e-19)
(-0 -0 3.6109e-18)
(-0 -0 -3.44065e-18)
(-0 -0 1.38024e-18)
(-0 -0 -2.58938e-18)
(-0 -0 1.72668e-18)
(-0 -0 1.90244e-18)
(-0 -0 -2.59446e-18)
(-0 -0 3.46436e-19)
(-0 -0 1.56151e-18)
(-0 -0 -2.25734e-18)
(-0 -0 -8.65668e-19)
(-0 -0 1.91345e-18)
(-0 -0 2.78377e-18)
(-0 -0 -3.48469e-18)
(-0 -0 -5.23043e-19)
(-0 -0 4.01197e-18)
(-0 -0 -2.26793e-18)
(-0 -0 -3.49486e-18)
(-0 -0 3.84807e-18)
(-0 -0 1.75759e-19)
(-0 -0 -2.28106e-18)
(-0 -0 1.40057e-18)
(-0 -0 -1.2265e-18)
(-0 -0 -1.75971e-18)
(-0 -0 2.5411e-21)
(-0 -0 3.16621e-18)
(-0 -0 1.74065e-19)
(-0 -0 1.75759e-19)
(-0 -0 -3.55754e-19)
(-0 -0 -1.23455e-18)
(-0 -0 -1.06218e-18)
(-0 -0 3.53975e-18)
(-0 -0 -4.61125e-18)
(-0 -0 1.77411e-18)
(-0 -0 2.84349e-18)
(-0 -0 -3.37712e-18)
(-0 -0 3.57024e-19)
(-0 -0 -1.79571e-19)
(-0 -0 8.88538e-19)
(-0 -0 7.11931e-19)
(-0 -0 -1.25107e-18)
(-0 -0 8.93196e-19)
(-0 -0 7.18707e-19)
(-0 -0 -2.86297e-18)
(-0 -0 2.86678e-18)
(-0 -0 -3.59142e-19)
(-0 -0 -8.97431e-19)
(-0 -0 8.98702e-19)
(-0 -0 1.79571e-19)
(-0 -0 1.07827e-18)
(-0 -0 4.23516e-22)
(-0 -0 1.62164e-18)
(-0 -0 -7.20825e-19)
(-0 -0 -3.79725e-18)
(-0 -0 1.63054e-18)
(-0 -0 -1.0842e-18)
(-0 -0 1.08547e-18)
(-0 -0 -9.05055e-19)
(-0 -0 1.69407e-21)
(-0 -0 1.08759e-18)
(-0 -0 7.30142e-19)
(-0 -0 -2.1845e-18)
(-0 -0 -2.00493e-18)
(-0 -0 3.28606e-18)
(-0 -0 1.64324e-18)
(-0 -0 -2.74396e-18)
(-0 -0 1.4641e-18)
(-0 -0 -1.46833e-18)
(-0 -0 7.35225e-19)
(-0 -0 1.28114e-18)
(-0 -0 -3.69306e-19)
(-0 -0 -1.65764e-18)
(-0 -0 1.47045e-18)
(-0 -0 -3.31275e-18)
(-0 -0 4.24279e-18)
(-0 -0 1.47807e-18)
(-0 -0 -5.54383e-19)
(-0 -0 1.84653e-19)
(-0 -0 -4.99622e-18)
(-0 -0 1.85373e-18)
(-0 -0 2.78335e-18)
(-0 -0 -2.22516e-18)
(-0 -0 3.15816e-18)
(-0 -0 -3.71636e-18)
(-0 -0 1.11597e-18)
(-0 -0 1.83383e-19)
(-0 -0 -1.86474e-18)
(-0 -0 1.30443e-18)
(-0 -0 1.6784e-18)
(-0 -0 -2.98876e-18)
(-0 -0 2.05702e-18)
(-0 -0 1.855e-19)
(-0 -0 -3.7693e-19)
(-0 -0 -9.37242e-19)
(-0 -0 7.54706e-19)
(-0 -0 -1.12825e-18)
(-0 -0 3.7676e-18)
(-0 -0 -4.52019e-18)
(-0 -0 4.524e-18)
(-0 -0 -1.32264e-18)
(-0 -0 -1.88804e-18)
(-0 -0 7.55977e-19)
(-0 -0 -1.88973e-18)
(-0 -0 -3.76083e-19)
(-0 -0 -7.60212e-19)
(-0 -0 2.46825e-18)
(-0 -0 -9.51642e-19)
(-0 -0 1.90032e-18)
(-0 -0 -2.28191e-18)
(-0 -0 1.90582e-19)
(-0 -0 5.71747e-19)
(-0 -0 -1.14349e-18)
(-0 -0 1.52805e-18)
(-0 -0 1.72202e-18)
(-0 -0 -3.63631e-18)
(-0 -0 4.78912e-18)
(-0 -0 -4.4105e-18)
(-0 -0 1.92022e-18)
(-0 -0 1.53567e-18)
(-0 -0 -1.34339e-18)
(-0 -0 -3.83706e-19)
(-0 -0 9.60535e-19)
(-0 -0 9.64771e-19)
(-0 -0 -2.51061e-18)
(-0 -0 1.93124e-19)
(-0 -0 -1.93208e-18)
(-0 -0 2.90532e-18)
(-0 -0 -1.93801e-18)
(-0 -0 1.92276e-19)
(-0 -0 7.7927e-19)
(-0 -0 -2.5411e-21)
(-0 -0 1.36288e-18)
(-0 -0 -2.5411e-21)
(-0 -0 -3.89635e-19)
(-0 -0 -1.93124e-19)
(-0 -0 -1.56362e-18)
(-0 -0 7.7927e-19)
(-0 -0 -3.91329e-19)
(-0 -0 7.852e-19)
(-0 -0 5.853e-19)
(-0 -0 -2.55296e-18)
(-0 -0 3.33985e-18)
(-0 -0 7.88588e-19)
(-0 -0 -1.57209e-18)
(-0 -0 -9.85099e-19)
(-0 -0 1.57548e-18)
(-0 -0 -2.56651e-18)
(-0 -0 1.999e-19)
(-0 -0 1.18415e-18)
(-0 -0 -9.88487e-19)
(-0 -0 2.37932e-18)
(-0 -0 -9.90182e-19)
(-0 -0 2.38016e-18)
(-0 -0 -4.1691e-18)
(-0 -0 9.95264e-19)
(-0 -0 2.38694e-18)
(-0 -0 -4.77811e-18)
(-0 -0 2.78674e-18)
(-0 -0 -6.00546e-19)
(-0 -0 1.79656e-18)
(-0 -0 1.3976e-18)
(-0 -0 -7.99599e-19)
(-0 -0 -8.0214e-19)
(-0 -0 -1.20279e-18)
(-0 -0 2.40811e-18)
(-0 -0 -3.61683e-18)
(-0 -0 2.0117e-18)
(-0 -0 -2.02441e-19)
(-0 -0 -1.00882e-18)
(-0 -0 2.21753e-18)
(-0 -0 -1.69407e-21)
(-0 -0 -6.0817e-19)
(-0 -0 -1.61614e-18)
(-0 -0 1.61783e-18)
(-0 -0 -2.43098e-18)
(-0 -0 3.85315e-18)
(-0 -0 -2.8401e-18)
(-0 -0 -1.62546e-18)
(-0 -0 -8.47033e-22)
(-0 -0 3.25515e-18)
(-0 -0 -2.5411e-21)
(-0 -0 1.21973e-18)
(-0 -0 -2.44793e-18)
(-0 -0 1.22735e-18)
(-0 -0 -8.19081e-19)
(-0 -0 1.23074e-18)
(-0 -0 -2.45809e-18)
(-0 -0 1.22735e-18)
(-0 -0 4.07423e-19)
(-0 -0 -2.87398e-18)
(-0 -0 2.05405e-18)
(-0 -0 -2.05914e-18)
(-0 -0 1.23752e-18)
(-0 -0 3.29919e-18)
(-0 -0 -5.77676e-18)
(-0 -0 4.13183e-18)
(-0 -0 -2.06422e-18)
(-0 -0 8.47033e-22)
(-0 -0 4.14284e-18)
(-0 -0 -2.48858e-18)
(-0 -0 -2.90617e-18)
(-0 -0 2.90871e-18)
(-0 -0 -8.47033e-22)
(-0 -0 1.66188e-18)
(-0 -0 -2.91295e-18)
(-0 -0 3.74981e-18)
(-0 -0 -2.50298e-18)
(-0 -0 -1.66865e-18)
(-0 -0 2.92565e-18)
(-0 -0 -2.92904e-18)
(-0 -0 2.09641e-18)
(-0 -0 -8.36869e-19)
(-0 -0 -2.09641e-18)
(-0 -0 2.9392e-18)
(-0 -0 -2.09979e-18)
(-0 -0 -4.24364e-19)
(-0 -0 0)
(-0 -0 1.6856e-18)
(-0 -0 8.47033e-22)
(-0 -0 -2.53348e-18)
(-0 -0 2.11419e-18)
(-0 -0 1.69237e-18)
(-0 -0 4.24364e-19)
(-0 -0 8.49574e-19)
(-0 -0 -2.97139e-18)
(-0 -0 2.1269e-18)
(-0 -0 -2.12944e-18)
(-0 -0 2.12521e-18)
(-0 -0 1.27563e-18)
(-0 -0 -5.11777e-18)
(-0 -0 1.28071e-18)
(-0 -0 -1.71016e-18)
(-0 -0 8.57197e-19)
(-0 -0 8.47033e-22)
(-0 -0 -1.71016e-18)
(-0 -0 2.99765e-18)
(-0 -0 -1.28664e-18)
(-0 -0 4.29615e-18)
(-0 -0 -1.29173e-18)
(-0 -0 -4.32834e-19)
(-0 -0 1.7271e-18)
(-0 -0 -2.15316e-18)
(-0 -0 0)
(-0 -0 -3.45844e-18)
(-0 -0 2.16332e-18)
(-0 -0 2.16502e-18)
(-0 -0 -3.46436e-18)
(-0 -0 2.16925e-18)
(-0 -0 2.5411e-21)
(-0 -0 -8.69056e-19)
(-0 -0 2.17264e-18)
(-0 -0 4.33681e-19)
(-0 -0 -3.04762e-18)
(-0 -0 4.36222e-19)
(-0 -0 4.35375e-19)
(-0 -0 1.31205e-18)
(-0 -0 -4.38763e-19)
(-0 -0 8.7922e-19)
(-0 -0 -1.31205e-18)
(-0 -0 1.31714e-18)
(-0 -0 -1.31629e-18)
(-0 -0 -4.37916e-19)
(-0 -0 -4.3961e-19)
(-0 -0 2.20059e-18)
(-0 -0 1.32137e-18)
(-0 -0 -3.96666e-18)
(-0 -0 8.82608e-19)
(-0 -0 -2.20991e-18)
(-0 -0 1.76691e-18)
(-0 -0 1.7686e-18)
(-0 -0 -8.87691e-19)
(-0 -0 2.21584e-18)
(-0 -0 -3.54992e-18)
(-0 -0 -1.69407e-21)
(-0 -0 2.22346e-18)
(-0 -0 -1.783e-18)
(-0 -0 3.56262e-18)
(-0 -0 -4.01578e-18)
(-0 -0 -4.4808e-19)
(-0 -0 3.57194e-18)
(-0 -0 -4.47233e-19)
(-0 -0 1.78893e-18)
(-0 -0 -1.34255e-18)
(-0 -0 -8.96161e-19)
(-0 -0 -8.47033e-22)
(-0 -0 -3.59227e-18)
(-0 -0 -4.50622e-19)
(-0 -0 8.47033e-22)
(-0 -0 2.2548e-18)
(-0 -0 4.48927e-19)
(-0 -0 -2.25734e-18)
(-0 -0 1.35695e-18)
(-0 -0 1.35779e-18)
(-0 -0 -1.80757e-18)
(-0 -0 -9.03784e-19)
(-0 -0 1.81434e-18)
(-0 -0 -9.08019e-19)
(-0 -0 4.54857e-19)
(-0 -0 4.56551e-19)
(-0 -0 4.5401e-19)
(-0 -0 -9.1056e-19)
(-0 -0 1.69407e-21)
(-0 -0 4.56212e-18)
(-0 -0 -4.56551e-19)
(-0 -0 -5.48877e-18)
(-0 -0 9.15643e-19)
(-0 -0 2.74608e-18)
(-0 -0 -2.29292e-18)
(-0 -0 3.38813e-21)
(-0 -0 3.67443e-18)
(-0 -0 4.59939e-19)
(-0 -0 -2.75879e-18)
(-0 -0 -1.69407e-21)
(-0 -0 -1.38575e-18)
(-0 -0 4.63327e-19)
(-0 -0 2.5411e-21)
(-0 -0 4.63327e-19)
(-0 -0 1.84992e-18)
(-0 -0 -4.6248e-19)
(-0 -0 -3.24329e-18)
(-0 -0 1.85754e-18)
(-0 -0 4.6248e-19)
(-0 -0 -9.34277e-19)
(-0 -0 1.86093e-18)
(-0 -0 -1.3993e-18)
(-0 -0 -1.3993e-18)
(-0 -0 2.33188e-18)
(-0 -0 1.40015e-18)
(-0 -0 -9.35124e-19)
(-0 -0 -2.5411e-21)
(-0 -0 -9.35971e-19)
(-0 -0 4.67562e-19)
(-0 -0 -3.75405e-18)
(-0 -0 9.37665e-19)
(-0 -0 1.87872e-18)
(-0 -0 -8.47033e-22)
(-0 -0 -1.41709e-18)
(-0 -0 1.88719e-18)
(-0 -0 -1.41624e-18)
(-0 -0 2.83587e-18)
(-0 -0 -4.76033e-19)
(-0 -0 2.83925e-18)
(-0 -0 -3.31698e-18)
(-0 -0 1.89905e-18)
(-0 -0 -4.27498e-18)
(-0 -0 3.3263e-18)
(-0 -0 -4.7688e-19)
(-0 -0 4.74338e-19)
(-0 -0 -2.5411e-21)
(-0 -0 -2.38863e-18)
(-0 -0 -9.563e-19)
(-0 -0 1.43403e-18)
(-0 -0 -9.57147e-19)
(-0 -0 -9.57147e-19)
(-0 -0 3.35594e-18)
(-0 -0 9.61382e-19)
(-0 -0 -9.63076e-19)
(-0 -0 -4.79421e-19)
(-0 -0 -1.44504e-18)
(-0 -0 1.92361e-18)
(-0 -0 -4.3402e-18)
(-0 -0 2.89685e-18)
(-0 -0 4.80268e-19)
(-0 -0 -9.64771e-19)
(-0 -0 1.44843e-18)
(-0 -0 -8.47033e-22)
(-0 -0 -9.69006e-19)
(-0 -0 -4.88738e-19)
(-0 -0 3.8828e-18)
(-0 -0 -2.43268e-18)
(-0 -0 9.74935e-19)
(-0 -0 -2.92396e-18)
(-0 -0 9.74088e-19)
(-0 -0 2.5411e-21)
(-0 -0 -1.46367e-18)
(-0 -0 3.38813e-21)
(-0 -0 -2.5411e-21)
(-0 -0 1.96003e-18)
(-0 -0 -9.80017e-19)
(-0 -0 -3.43557e-18)
(-0 -0 6.38493e-18)
(-0 -0 -3.44404e-18)
(-0 -0 1.96512e-18)
(-0 -0 -3.44912e-18)
(-0 -0 -9.85099e-19)
(-0 -0 1.97105e-18)
(-0 -0 1.48231e-18)
(-0 -0 -4.92126e-19)
(-0 -0 9.89334e-19)
(-0 -0 -3.38813e-21)
(-0 -0 -2.97732e-18)
(-0 -0 6.94652e-18)
(-0 -0 -3.47453e-18)
(-0 -0 -2.48435e-18)
(-0 -0 1.99222e-18)
(-0 -0 -3.38813e-21)
(-0 -0 -3.49147e-18)
(-0 -0 4.97208e-19)
(-0 -0 3.99461e-18)
(-0 -0 1.50179e-18)
(-0 -0 -3.50333e-18)
(-0 -0 -4.99749e-19)
(-0 -0 3.00951e-18)
(-0 -0 -1.50518e-18)
(-0 -0 1.00458e-18)
(-0 -0 -2.51399e-18)
(-0 -0 3.01544e-18)
(-0 -0 1.51111e-18)
(-0 -0 -5.54468e-18)
(-0 -0 5.04662e-18)
(-0 -0 -1.00797e-18)
(-0 -0 -3.5406e-18)
(-0 -0 3.5389e-18)
(-0 -0 5.04832e-19)
(-0 -0 -3.04254e-18)
(-0 -0 5.09914e-19)
(-0 -0 -5.0822e-19)
(-0 -0 1.52635e-18)
(-0 -0 -1.01644e-18)
(-0 -0 4.07253e-18)
(-0 -0 -6.11727e-18)
(-0 -0 0)
(-0 -0 4.59431e-18)
(-0 -0 -1.69407e-21)
(-0 -0 -3.07304e-18)
(-0 -0 2.56143e-18)
(-0 -0 -1.53652e-18)
(-0 -0 -2.05321e-18)
(-0 -0 2.0549e-18)
(-0 -0 -2.5699e-18)
(-0 -0 0)
(-0 -0 1.54838e-18)
(-0 -0 1.69407e-21)
(-0 -0 4.13013e-18)
(-0 -0 -5.6819e-18)
(-0 -0 4.13183e-18)
(-0 -0 -3.10183e-18)
(-0 -0 -5.1669e-19)
(-0 -0 5.18554e-18)
(-0 -0 -5.18384e-19)
(-0 -0 0)
(-0 -0 -2.60378e-18)
(-0 -0 -1.56023e-18)
(-0 -0 2.0837e-18)
(-0 -0 2.08709e-18)
(-0 -0 5.23466e-19)
(-0 -0 -1.04863e-18)
(-0 -0 -1.04693e-18)
(-0 -0 -1.5704e-18)
(-0 -0 1.57209e-18)
(-0 -0 1.57548e-18)
(-0 -0 -3.14927e-18)
(-0 -0 -1.57548e-18)
(-0 -0 5.26854e-19)
(-0 -0 3.68459e-18)
(-0 -0 5.26854e-19)
(-0 -0 -2.63766e-18)
(-0 -0 2.63766e-18)
(-0 -0 -3.69984e-18)
(-0 -0 2.64613e-18)
(-0 -0 -2.64444e-18)
(-0 -0 -5.2516e-19)
(-0 -0 -5.31937e-19)
(-0 -0 2.6546e-18)
(-0 -0 1.06387e-18)
(-0 -0 -2.6563e-18)
(-0 -0 -1.06726e-18)
(-0 -0 2.13113e-18)
(-0 -0 -1.06557e-18)
(-0 -0 1.06896e-18)
(-0 -0 1.60259e-18)
(-0 -0 -2.67324e-18)
(-0 -0 2.14299e-18)
(-0 -0 -1.07065e-18)
(-0 -0 1.07404e-18)
(-0 -0 -2.68679e-18)
(-0 -0 1.07573e-18)
(-0 -0 2.15146e-18)
(-0 -0 -4.30632e-18)
(-0 -0 3.23058e-18)
(-0 -0 2.15993e-18)
(-0 -0 -4.85689e-18)
(-0 -0 5.42101e-19)
(-0 -0 2.16332e-18)
(-0 -0 -5.42101e-19)
(-0 -0 1.08759e-18)
(-0 -0 -1.628e-18)
(-0 -0 -5.43795e-19)
(-0 -0 1.69407e-21)
(-0 -0 -5.40407e-19)
(-0 -0 1.09098e-18)
(-0 -0 1.09098e-18)
(-0 -0 5.45489e-19)
(-0 -0 -2.18535e-18)
(-0 -0 -5.47183e-19)
(-0 -0 -1.08928e-18)
(-0 -0 2.7393e-18)
(-0 -0 -2.741e-18)
(-0 -0 0)
(-0 -0 0)
(-0 -0 1.09606e-18)
(-0 -0 2.20567e-18)
(-0 -0 -1.10453e-18)
(-0 -0 1.69407e-21)
(-0 -0 1.69407e-21)
(-0 -0 3.38813e-21)
(-0 -0 1.10284e-18)
(-0 -0 -2.21414e-18)
(-0 -0 3.32037e-18)
(-0 -0 -1.10623e-18)
(-0 -0 1.10961e-18)
(-0 -0 -3.33223e-18)
(-0 -0 1.69407e-21)
(-0 -0 -1.1147e-18)
(-0 -0 4.45201e-18)
(-0 -0 -1.11639e-18)
(-0 -0 -1.11131e-18)
(-0 -0 2.23278e-18)
(-0 -0 -3.35425e-18)
(-0 -0 0)
(-0 -0 2.23786e-18)
(-0 -0 -1.11978e-18)
(-0 -0 -2.24125e-18)
(-0 -0 2.24803e-18)
(-0 -0 -1.12317e-18)
(-0 -0 1.12317e-18)
(-0 -0 2.2548e-18)
(-0 -0 -1.12655e-18)
(-0 -0 0)
(-0 -0 2.25819e-18)
(-0 -0 -3.38644e-18)
(-0 -0 -2.26327e-18)
(-0 -0 3.40168e-18)
(-0 -0 -4.53501e-18)
(-0 -0 3.40338e-18)
(-0 -0 -1.69407e-21)
(-0 -0 3.40677e-18)
(-0 -0 -2.27513e-18)
(-0 -0 0)
(-0 -0 -1.13672e-18)
(-0 -0 -1.13841e-18)
(-0 -0 2.28529e-18)
(-0 -0 1.14519e-18)
(-0 -0 -1.14349e-18)
(-0 -0 -1.14519e-18)
(-0 -0 -1.15027e-18)
(-0 -0 3.44065e-18)
(-0 -0 1.14519e-18)
(-0 -0 -3.44404e-18)
(-0 -0 -2.29885e-18)
(-0 -0 2.30393e-18)
(-0 -0 2.30732e-18)
(-0 -0 -3.46436e-18)
(-0 -0 1.15366e-18)
(-0 -0 3.38813e-21)
(-0 -0 -1.69407e-21)
(-0 -0 -1.16044e-18)
(-0 -0 3.48131e-18)
(-0 -0 -1.16044e-18)
(-0 -0 0)
(-0 -0 -2.32087e-18)
(-0 -0 2.32765e-18)
(-0 -0 -2.32934e-18)
(-0 -0 0)
(-0 -0 4.66885e-18)
(-0 -0 -4.67054e-18)
(-0 -0 1.1706e-18)
(-0 -0 2.33612e-18)
(-0 -0 0)
(-0 -0 -2.34289e-18)
(-0 -0 3.38813e-21)
(-0 -0 -1.69407e-21)
(-0 -0 -1.69407e-21)
(-0 -0 1.17399e-18)
(-0 -0 -3.53552e-18)
(-0 -0 4.71459e-18)
(-0 -0 -2.36153e-18)
(-0 -0 1.18246e-18)
(-0 -0 -1.18415e-18)
(-0 -0 -2.37e-18)
(-0 -0 2.36492e-18)
(-0 -0 -1.18585e-18)
(-0 -0 2.37169e-18)
(-0 -0 0)
(-0 -0 1.18923e-18)
(-0 -0 0)
(-0 -0 -2.38186e-18)
(-0 -0 -3.38813e-21)
(-0 -0 2.38524e-18)
(-0 -0 -3.57956e-18)
(-0 -0 1.69407e-21)
(-0 -0 -3.38813e-21)
(-0 -0 -1.19601e-18)
(-0 -0 2.40049e-18)
(-0 -0 -2.3971e-18)
(-0 -0 2.40388e-18)
(-0 -0 2.40727e-18)
(-0 -0 -2.40557e-18)
(-0 -0 4.81623e-18)
(-0 -0 -3.61852e-18)
(-0 -0 -2.41066e-18)
(-0 -0 1.20787e-18)
(-0 -0 -3.38813e-21)
(-0 -0 1.20956e-18)
(-0 -0 -2.42082e-18)
(-0 -0 1.21295e-18)
(-0 -0 -1.21126e-18)
(-0 -0 3.64732e-18)
(-0 -0 -4.86028e-18)
(-0 -0 3.6541e-18)
(-0 -0 -2.43437e-18)
(-0 -0 1.21803e-18)
(-0 -0 3.38813e-21)
(-0 -0 -1.22481e-18)
(-0 -0 6.11388e-18)
(-0 -0 -4.89246e-18)
(-0 -0 1.2282e-18)
(-0 -0 -1.2282e-18)
(-0 -0 1.69407e-21)
(-0 -0 0)
(-0 -0 2.45809e-18)
(-0 -0 0)
(-0 -0 -3.69645e-18)
(-0 -0 -1.22989e-18)
(-0 -0 1.23667e-18)
(-0 -0 -1.69407e-21)
(-0 -0 3.38813e-21)
(-0 -0 3.7117e-18)
(-0 -0 -1.23836e-18)
(-0 -0 -2.48011e-18)
(-0 -0 1.24344e-18)
(-0 -0 1.24006e-18)
(-0 -0 0)
(-0 -0 -2.48858e-18)
(-0 -0 0)
(-0 -0 4.99072e-18)
(-0 -0 -3.74389e-18)
(-0 -0 1.69407e-21)
(-0 -0 2.49705e-18)
(-0 -0 -3.75574e-18)
(-0 -0 2.50722e-18)
(-0 -0 2.50722e-18)
(-0 -0 -1.69407e-21)
(-0 -0 -3.7693e-18)
(-0 -0 -2.51569e-18)
(-0 -0 5.03307e-18)
(-0 -0 -5.04154e-18)
(-0 -0 3.78116e-18)
(-0 -0 -3.38813e-21)
(-0 -0 -1.25869e-18)
(-0 -0 -1.26377e-18)
(-0 -0 2.53093e-18)
(-0 -0 0)
(-0 -0 -3.80826e-18)
(-0 -0 6.35105e-18)
(-0 -0 -2.54279e-18)
(-0 -0 -5.08897e-18)
(-0 -0 1.27224e-18)
(-0 -0 2.54788e-18)
(-0 -0 -1.27902e-18)
(-0 -0 -1.27394e-18)
(-0 -0 -3.38813e-21)
(-0 -0 5.11438e-18)
(-0 -0 -3.84214e-18)
(-0 -0 3.84722e-18)
(-0 -0 -3.85231e-18)
(-0 -0 5.13471e-18)
(-0 -0 -2.56651e-18)
(-0 -0 1.28918e-18)
(-0 -0 -1.28918e-18)
(-0 -0 -1.69407e-21)
(-0 -0 0)
(-0 -0 -3.87094e-18)
(-0 -0 5.1686e-18)
(-0 -0 -2.58514e-18)
(-0 -0 -1.69407e-21)
(-0 -0 3.88788e-18)
(-0 -0 -1.29596e-18)
(-0 -0 0)
(-0 -0 -1.29935e-18)
(-0 -0 3.38813e-21)
(-0 -0 -3.90652e-18)
(-0 -0 5.21433e-18)
(-0 -0 -1.30443e-18)
(-0 -0 -3.91837e-18)
(-0 -0 1.30782e-18)
(-0 -0 3.92007e-18)
(-0 -0 -1.30782e-18)
(-0 -0 1.69407e-21)
(-0 -0 -3.93193e-18)
(-0 -0 3.9404e-18)
(-0 -0 -2.6258e-18)
(-0 -0 1.3146e-18)
(-0 -0 2.63088e-18)
(-0 -0 1.69407e-21)
(-0 -0 3.38813e-21)
(-0 -0 -3.95734e-18)
(-0 -0 2.64274e-18)
(-0 -0 -5.29226e-18)
(-0 -0 3.9675e-18)
(-0 -0 1.32476e-18)
(-0 -0 -1.32645e-18)
(-0 -0 1.32815e-18)
(-0 -0 -1.32984e-18)
(-0 -0 2.66307e-18)
(-0 -0 -6.65937e-18)
(-0 -0 7.99938e-18)
(-0 -0 -8.00446e-18)
(-0 -0 2.66985e-18)
(-0 -0 2.67154e-18)
(-0 -0 4.01324e-18)
(-0 -0 -5.35494e-18)
(-0 -0 -1.34001e-18)
(-0 -0 1.34339e-18)
(-0 -0 -1.69407e-21)
(-0 -0 0)
(-0 -0 1.69407e-21)
(-0 -0 -4.03696e-18)
(-0 -0 5.38882e-18)
(-0 -0 -1.34848e-18)
(-0 -0 -1.35186e-18)
(-0 -0 4.05729e-18)
(-0 -0 -4.06068e-18)
(-0 -0 5.41762e-18)
(-0 -0 -2.71051e-18)
(-0 -0 -1.35356e-18)
(-0 -0 -2.71389e-18)
(-0 -0 2.72067e-18)
(-0 -0 1.69407e-21)
(-0 -0 -1.69407e-21)
(-0 -0 4.08778e-18)
(-0 -0 -1.36542e-18)
(-0 -0 -1.36881e-18)
(-0 -0 1.36711e-18)
(-0 -0 -4.10303e-18)
(-0 -0 1.3705e-18)
(-0 -0 -1.69407e-21)
(-0 -0 -1.37219e-18)
(-0 -0 1.3705e-18)
(-0 -0 -1.37558e-18)
(-0 -0 5.50233e-18)
(-0 -0 -1.37219e-18)
(-0 -0 1.37558e-18)
(-0 -0 -4.1386e-18)
(-0 -0 2.76302e-18)
(-0 -0 -2.76133e-18)
(-0 -0 1.38066e-18)
(-0 -0 1.38066e-18)
(-0 -0 -4.15893e-18)
(-0 -0 2.77488e-18)
(-0 -0 -2.77657e-18)
(-0 -0 2.77827e-18)
(-0 -0 -2.77996e-18)
(-0 -0 -1.39422e-18)
(-0 -0 6.96939e-18)
(-0 -0 -1.39591e-18)
(-0 -0 3.38813e-21)
(-0 -0 -4.19281e-18)
(-0 -0 1.40269e-18)
(-0 -0 2.80198e-18)
(-0 -0 -1.3993e-18)
(-0 -0 -2.80368e-18)
(-0 -0 1.69407e-21)
(-0 -0 2.81215e-18)
(-0 -0 -5.62938e-18)
(-0 -0 5.63785e-18)
(-0 -0 1.41285e-18)
(-0 -0 -2.82062e-18)
(-0 -0 1.41455e-18)
(-0 -0 -1.41285e-18)
(-0 -0 -2.83078e-18)
(-0 -0 4.24872e-18)
(-0 -0 -1.42132e-18)
(-0 -0 1.41455e-18)
(-0 -0 -4.26058e-18)
(-0 -0 4.27074e-18)
(-0 -0 1.42302e-18)
(-0 -0 -2.84603e-18)
(-0 -0 3.38813e-21)
(-0 -0 1.42979e-18)
(-0 -0 1.42471e-18)
(-0 -0 -2.85789e-18)
(-0 -0 -1.43318e-18)
(-0 -0 -1.43149e-18)
(-0 -0 1.69407e-21)
(-0 -0 4.30293e-18)
(-0 -0 -5.74119e-18)
(-0 -0 1.43826e-18)
(-0 -0 -1.43826e-18)
(-0 -0 7.20317e-18)
(-0 -0 -1.44334e-18)
(-0 -0 2.8833e-18)
(-0 -0 -4.33342e-18)
(-0 -0 -1.44504e-18)
(-0 -0 0)
(-0 -0 2.89855e-18)
(-0 -0 -1.45181e-18)
(-0 -0 -1.45012e-18)
(-0 -0 4.36053e-18)
(-0 -0 -2.90702e-18)
(-0 -0 -1.4569e-18)
(-0 -0 0)
(-0 -0 4.37238e-18)
(-0 -0 -1.69407e-21)
(-0 -0 -4.38085e-18)
(-0 -0 2.92735e-18)
(-0 -0 1.46537e-18)
(-0 -0 1.69407e-21)
(-0 -0 -2.93073e-18)
(-0 -0 2.93751e-18)
(-0 -0 -4.40796e-18)
(-0 -0 2.9392e-18)
(-0 -0 -4.41474e-18)
(-0 -0 1.47384e-18)
(-0 -0 1.47553e-18)
(-0 -0 -1.47723e-18)
(-0 -0 4.42998e-18)
(-0 -0 -2.95953e-18)
(-0 -0 -1.69407e-21)
(-0 -0 -2.96292e-18)
(-0 -0 1.484e-18)
(-0 -0 2.97309e-18)
(-0 -0 -2.97139e-18)
(-0 -0 1.48908e-18)
(-0 -0 2.97817e-18)
(-0 -0 1.69407e-21)
(-0 -0 1.48908e-18)
(-0 -0 -4.47742e-18)
(-0 -0 1.69407e-21)
(-0 -0 1.49417e-18)
(-0 -0 -2.99172e-18)
(-0 -0 1.50094e-18)
(-0 -0 3.00188e-18)
(-0 -0 -1.50772e-18)
(-0 -0 -1.50433e-18)
(-0 -0 4.51299e-18)
(-0 -0 -4.51638e-18)
(-0 -0 0)
(-0 -0 3.01544e-18)
(-0 -0 -3.38813e-21)
(-0 -0 -3.0256e-18)
(-0 -0 3.38813e-21)
(-0 -0 0)
(-0 -0 -1.51449e-18)
(-0 -0 1.51449e-18)
(-0 -0 -1.51788e-18)
(-0 -0 6.07831e-18)
(-0 -0 -1.51788e-18)
(-0 -0 -4.57059e-18)
(-0 -0 0)
(-0 -0 -3.38813e-21)
(-0 -0 1.52466e-18)
(-0 -0 -1.53144e-18)
(-0 -0 -3.38813e-21)
(-0 -0 6.12574e-18)
(-0 -0 -4.59769e-18)
(-0 -0 3.06626e-18)
(-0 -0 -3.06965e-18)
(-0 -0 3.38813e-21)
(-0 -0 -1.53482e-18)
(-0 -0 1.53482e-18)
(-0 -0 -1.54499e-18)
(-0 -0 4.62819e-18)
(-0 -0 -1.54499e-18)
(-0 -0 0)
(-0 -0 -1.54838e-18)
(-0 -0 -1.54499e-18)
(-0 -0 3.38813e-21)
(-0 -0 3.1103e-18)
(-0 -0 -1.55515e-18)
(-0 -0 3.1103e-18)
(-0 -0 -1.55515e-18)
(-0 -0 -3.11369e-18)
(-0 -0 -3.38813e-21)
(-0 -0 0)
(-0 -0 4.6824e-18)
(-0 -0 -7.81303e-18)
(-0 -0 6.25449e-18)
(-0 -0 -3.38813e-21)
(-0 -0 -1.56193e-18)
(-0 -0 1.57209e-18)
(-0 -0 -3.1408e-18)
(-0 -0 -1.57209e-18)
(-0 -0 3.38813e-21)
(-0 -0 6.29854e-18)
(-0 -0 -3.15435e-18)
(-0 -0 -3.16113e-18)
(-0 -0 1.57887e-18)
(-0 -0 1.57887e-18)
(-0 -0 3.1679e-18)
(-0 -0 -3.1679e-18)
(-0 -0 3.38813e-21)
(-0 -0 1.58226e-18)
(-0 -0 -3.17468e-18)
(-0 -0 4.77049e-18)
(-0 -0 -3.18484e-18)
(-0 -0 0)
(-0 -0 -3.18484e-18)
(-0 -0 3.18484e-18)
(-0 -0 3.19162e-18)
(-0 -0 0)
(-0 -0 -4.79421e-18)
(-0 -0 -1.59581e-18)
(-0 -0 1.5992e-18)
(-0 -0 4.80776e-18)
(-0 -0 -4.81454e-18)
(-0 -0 0)
(-0 -0 4.8247e-18)
(-0 -0 -4.82809e-18)
(-0 -0 6.44761e-18)
(-0 -0 -3.2255e-18)
(-0 -0 -3.2255e-18)
(-0 -0 3.23905e-18)
(-0 -0 0)
(-0 -0 3.38813e-21)
(-0 -0 0)
(-0 -0 -1.61614e-18)
(-0 -0 0)
(-0 -0 0)
(-0 -0 1.6263e-18)
(-0 -0 -1.6263e-18)
(-0 -0 -3.26277e-18)
(-0 -0 1.63647e-18)
(-0 -0 1.63308e-18)
(-0 -0 4.89924e-18)
(-0 -0 -4.9094e-18)
(-0 -0 -1.63647e-18)
(-0 -0 4.91279e-18)
(-0 -0 -1.63986e-18)
(-0 -0 1.64324e-18)
(-0 -0 -1.64324e-18)
(-0 -0 -1.64663e-18)
(-0 -0 4.94328e-18)
(-0 -0 -6.59669e-18)
(-0 -0 -3.30004e-18)
(-0 -0 4.95684e-18)
(-0 -0 0)
(-0 -0 1.6568e-18)
(-0 -0 -3.38813e-21)
(-0 -0 -1.6568e-18)
(-0 -0 -3.31698e-18)
(-0 -0 3.32376e-18)
(-0 -0 -3.38813e-21)
(-0 -0 3.38813e-21)
(-0 -0 0)
(-0 -0 3.33053e-18)
(-0 -0 -6.67462e-18)
(-0 -0 8.35513e-18)
(-0 -0 -5.01105e-18)
(-0 -0 3.35086e-18)
(-0 -0 -3.35425e-18)
(-0 -0 3.38813e-21)
(-0 -0 -1.68051e-18)
(-0 -0 3.35764e-18)
(-0 -0 -3.38813e-21)
(-0 -0 3.38813e-21)
(-0 -0 -3.3678e-18)
(-0 -0 1.6839e-18)
(-0 -0 3.37797e-18)
(-0 -0 -3.38136e-18)
(-0 -0 3.38136e-18)
(-0 -0 -1.68051e-18)
(-0 -0 1.69068e-18)
(-0 -0 -1.69407e-18)
(-0 -0 3.39491e-18)
(-0 -0 0)
(-0 -0 -3.40507e-18)
(-0 -0 3.40846e-18)
(-0 -0 -6.80676e-18)
(-0 -0 3.40846e-18)
(-0 -0 -3.41524e-18)
(-0 -0 -3.38813e-21)
(-0 -0 0)
(-0 -0 3.42201e-18)
(-0 -0 -3.42879e-18)
(-0 -0 3.42879e-18)
(-0 -0 -3.42879e-18)
(-0 -0 6.87791e-18)
(-0 -0 -3.43895e-18)
(-0 -0 -3.44234e-18)
(-0 -0 3.44234e-18)
(-0 -0 -3.45251e-18)
(-0 -0 6.90501e-18)
(-0 -0 -3.45251e-18)
(-0 -0 3.45589e-18)
(-0 -0 -3.46606e-18)
(-0 -0 3.38813e-21)
(-0 -0 3.47284e-18)
(-0 -0 0)
(-0 -0 -6.94567e-18)
(-0 -0 0)
(-0 -0 0)
(-0 -0 3.483e-18)
(-0 -0 0)
(-0 -0 -3.38813e-21)
(-0 -0 0)
(-0 -0 0)
(-0 -0 -3.49655e-18)
(-0 -0 3.50333e-18)
(-0 -0 0)
(-0 -0 -3.51349e-18)
(-0 -0 3.5101e-18)
(-0 -0 -3.51688e-18)
(-0 -0 3.38813e-21)
(-0 -0 3.52027e-18)
(-0 -0 3.38813e-21)
(-0 -0 -3.53043e-18)
(-0 -0 -3.38813e-21)
(-0 -0 3.53043e-18)
(-0 -0 0)
(-0 -0 -3.54399e-18)
(-0 -0 3.5406e-18)
(-0 -0 0)
(-0 -0 0)
(-0 -0 0)
(-0 -0 0)
(-0 -0 0)
(-0 -0 -3.5677e-18)
(-0 -0 3.57109e-18)
(-0 -0 -3.57448e-18)
(-0 -0 3.57448e-18)
(-0 -0 -3.57787e-18)
(-0 -0 0)
(-0 -0 3.58464e-18)
(-0 -0 -3.58803e-18)
(-0 -0 3.5982e-18)
(-0 -0 3.60158e-18)
(-0 -0 -3.5982e-18)
(-0 -0 -3.60836e-18)
(-0 -0 -3.38813e-21)
(-0 -0 -3.38813e-21)
(-0 -0 3.38813e-21)
(-0 -0 -3.38813e-21)
(-0 -0 -3.38813e-21)
(-0 -0 0)
(-0 -0 3.6253e-18)
(-0 -0 -3.62869e-18)
(-0 -0 3.38813e-21)
(-0 -0 3.64224e-18)
(-0 -0 0)
(-0 -0 0)
(-0 -0 -3.38813e-21)
(-0 -0 3.38813e-21)
(-0 -0 -3.64902e-18)
(-0 -0 3.65918e-18)
(-0 -0 -3.66257e-18)
(-0 -0 3.65918e-18)
(-0 -0 0)
(-0 -0 -3.66935e-18)
(-0 -0 -3.38813e-21)
(-0 -0 0)
(-0 -0 3.68629e-18)
(-0 -0 -3.67951e-18)
(-0 -0 0)
(-0 -0 7.38952e-18)
(-0 -0 -7.3929e-18)
(-0 -0 0)
(-0 -0 0)
(-0 -0 3.70323e-18)
(-0 -0 3.38813e-21)
(-0 -0 0)
(-0 -0 3.71678e-18)
(-0 -0 -3.71678e-18)
(-0 -0 0)
(-0 -0 -3.73372e-18)
(-0 -0 3.73033e-18)
(-0 -0 -3.73372e-18)
(-0 -0 3.38813e-21)
(-0 -0 3.7405e-18)
(-0 -0 -3.74389e-18)
(-0 -0 7.50132e-18)
(-0 -0 -7.50132e-18)
(-0 -0 3.75744e-18)
(-0 -0 3.38813e-21)
(-0 -0 -3.7676e-18)
(-0 -0 3.76421e-18)
(-0 -0 -3.7676e-18)
(-0 -0 3.38813e-21)
(-0 -0 3.77777e-18)
(-0 -0 -3.77438e-18)
(-0 -0 3.78793e-18)
(-0 -0 0)
(-0 -0 0)
(-0 -0 3.79471e-18)
(-0 -0 -3.79471e-18)
(-0 -0 0)
(-0 -0 -3.38813e-21)
(-0 -0 -3.80826e-18)
(-0 -0 3.81842e-18)
(-0 -0 0)
(-0 -0 3.38813e-21)
(-0 -0 -3.82859e-18)
(-0 -0 0)
(-0 -0 3.38813e-21)
(-0 -0 3.38813e-21)
(-0 -0 3.83537e-18)
(-0 -0 -3.84214e-18)
(-0 -0 -3.38813e-21)
(-0 -0 3.38813e-21)
(-0 -0 -3.38813e-21)
(-0 -0 0)
(-0 -0 3.86247e-18)
(-0 -0 -3.38813e-21)
(-0 -0 0)
(-0 -0 3.86586e-18)
(-0 -0 -3.86925e-18)
(-0 -0 -3.87941e-18)
(-0 -0 3.87602e-18)
(-0 -0 -3.38813e-21)
(-0 -0 3.38813e-21)
(-0 -0 0)
(-0 -0 3.38813e-21)
(-0 -0 -3.89635e-18)
(-0 -0 3.89974e-18)
(-0 -0 -3.90652e-18)
(-0 -0 3.9099e-18)
(-0 -0 0)
(-0 -0 3.92007e-18)
(-0 -0 -3.92346e-18)
(-0 -0 0)
(-0 -0 -3.38813e-21)
(-0 -0 -3.93362e-18)
(-0 -0 3.93362e-18)
(-0 -0 -3.93701e-18)
(-0 -0 0)
(-0 -0 3.38813e-21)
(-0 -0 3.95056e-18)
(-0 -0 -3.95734e-18)
(-0 -0 0)
(-0 -0 -3.38813e-21)
(-0 -0 7.935e-18)
(-0 -0 -7.935e-18)
(-0 -0 3.97767e-18)
(-0 -0 3.38813e-21)
(-0 -0 -3.97767e-18)
(-0 -0 -3.38813e-21)
(-0 -0 3.98783e-18)
(-0 -0 0)
(-0 -0 -3.99461e-18)
(-0 -0 0)
(-0 -0 8.00277e-18)
(-0 -0 0)
(-0 -0 -8.01632e-18)
(-0 -0 4.01494e-18)
(-0 -0 -4.02171e-18)
(-0 -0 3.38813e-21)
(-0 -0 0)
(-0 -0 4.02849e-18)
(-0 -0 0)
(-0 -0 -4.03526e-18)
(-0 -0 6.77626e-21)
(-0 -0 4.04204e-18)
(-0 -0 -3.38813e-21)
(-0 -0 -4.05221e-18)
(-0 -0 4.05221e-18)
(-0 -0 0)
(-0 -0 0)
(-0 -0 -4.05898e-18)
(-0 -0 0)
(-0 -0 3.38813e-21)
(-0 -0 4.07931e-18)
(-0 -0 -4.08609e-18)
(-0 -0 -3.38813e-21)
(-0 -0 4.08948e-18)
(-0 -0 0)
(-0 -0 3.38813e-21)
(-0 -0 3.38813e-21)
(-0 -0 -3.38813e-21)
(-0 -0 0)
(-0 -0 -4.11658e-18)
(-0 -0 3.38813e-21)
(-0 -0 0)
(-0 -0 4.12336e-18)
(-0 -0 3.38813e-21)
(-0 -0 -3.38813e-21)
(-0 -0 -3.38813e-21)
(-0 -0 -4.13691e-18)
(-0 -0 4.14369e-18)
(-0 -0 -4.14707e-18)
(-0 -0 -3.38813e-21)
(-0 -0 4.15724e-18)
(-0 -0 3.38813e-21)
(-0 -0 -4.16063e-18)
(-0 -0 0)
(-0 -0 4.17418e-18)
(-0 -0 -4.17418e-18)
(-0 -0 4.18095e-18)
(-0 -0 3.38813e-21)
(-0 -0 -4.18095e-18)
(-0 -0 0)
(-0 -0 3.38813e-21)
(-0 -0 4.19451e-18)
(-0 -0 -4.1979e-18)
(-0 -0 4.20806e-18)
(-0 -0 -3.38813e-21)
(-0 -0 0)
(-0 -0 0)
(-0 -0 3.38813e-21)
(-0 -0 -4.225e-18)
(-0 -0 -3.38813e-21)
(-0 -0 4.23516e-18)
(-0 -0 -3.38813e-21)
(-0 -0 3.38813e-21)
(-0 -0 -3.38813e-21)
(-0 -0 -3.38813e-21)
(-0 -0 -3.38813e-21)
(-0 -0 0)
(-0 -0 -3.38813e-21)
(-0 -0 -4.26566e-18)
(-0 -0 0)
(-0 -0 3.38813e-21)
(-0 -0 4.27921e-18)
(-0 -0 0)
(-0 -0 -4.2826e-18)
(-0 -0 4.29276e-18)
(-0 -0 3.38813e-21)
(-0 -0 0)
(-0 -0 -4.29954e-18)
(-0 -0 4.30632e-18)
(-0 -0 3.38813e-21)
(-0 -0 -4.30632e-18)
(-0 -0 4.32326e-18)
(-0 -0 -4.32326e-18)
(-0 -0 -6.77626e-21)
(-0 -0 4.33003e-18)
(-0 -0 3.38813e-21)
(-0 -0 -4.3402e-18)
(-0 -0 4.34358e-18)
(-0 -0 0)
(-0 -0 -3.38813e-21)
(-0 -0 -4.35375e-18)
(-0 -0 0)
(-0 -0 -3.38813e-21)
(-0 -0 4.37069e-18)
(-0 -0 0)
(-0 -0 3.38813e-21)
(-0 -0 -3.38813e-21)
(-0 -0 3.38813e-21)
(-0 -0 0)
(-0 -0 -4.38763e-18)
(-0 -0 4.39441e-18)
(-0 -0 -4.39441e-18)
(-0 -0 -3.38813e-21)
(-0 -0 4.40796e-18)
(-0 -0 0)
(-0 -0 0)
(-0 -0 -4.41812e-18)
(-0 -0 4.42829e-18)
(-0 -0 -4.42829e-18)
(-0 -0 4.43845e-18)
(-0 -0 -3.38813e-21)
(-0 -0 -4.43845e-18)
(-0 -0 -3.38813e-21)
(-0 -0 4.44184e-18)
(-0 -0 3.38813e-21)
(-0 -0 0)
(-0 -0 3.38813e-21)
(-0 -0 -4.47233e-18)
(-0 -0 0)
(-0 -0 4.47911e-18)
(-0 -0 3.38813e-21)
(-0 -0 0)
(-0 -0 -4.48589e-18)
(-0 -0 4.49266e-18)
(-0 -0 0)
(-0 -0 -3.38813e-21)
(-0 -0 -6.77626e-21)
(-0 -0 -4.5096e-18)
(-0 -0 0)
(-0 -0 -3.38813e-21)
(-0 -0 4.51977e-18)
(-0 -0 3.38813e-21)
(-0 -0 3.38813e-21)
(-0 -0 -6.77626e-21)
(-0 -0 -3.38813e-21)
(-0 -0 -4.54348e-18)
(-0 -0 4.53671e-18)
(-0 -0 0)
(-0 -0 0)
(-0 -0 0)
(-0 -0 -4.56381e-18)
(-0 -0 4.56381e-18)
(-0 -0 3.38813e-21)
(-0 -0 -4.57059e-18)
(-0 -0 -3.38813e-21)
(-0 -0 4.58753e-18)
(-0 -0 -3.38813e-21)
(-0 -0 -4.59092e-18)
(-0 -0 4.59769e-18)
(-0 -0 3.38813e-21)
(-0 -0 -4.60447e-18)
(-0 -0 4.61464e-18)
(-0 -0 -4.61464e-18)
(-0 -0 4.61464e-18)
(-0 -0 -4.62141e-18)
(-0 -0 0)
(-0 -0 4.63158e-18)
(-0 -0 -4.64174e-18)
(-0 -0 4.63496e-18)
(-0 -0 -3.38813e-21)
(-0 -0 3.38813e-21)
(-0 -0 0)
(-0 -0 -3.38813e-21)
(-0 -0 -4.66207e-18)
(-0 -0 4.67223e-18)
(-0 -0 -4.66885e-18)
(-0 -0 -3.38813e-21)
(-0 -0 -3.38813e-21)
(-0 -0 -3.38813e-21)
(-0 -0 4.68579e-18)
(-0 -0 -4.68917e-18)
(-0 -0 4.69595e-18)
(-0 -0 0)
(-0 -0 -4.70612e-18)
(-0 -0 4.71289e-18)
(-0 -0 3.38813e-21)
(-0 -0 0)
(-0 -0 -4.72306e-18)
(-0 -0 3.38813e-21)
(-0 -0 4.73661e-18)
(-0 -0 0)
(-0 -0 -4.74677e-18)
(-0 -0 -6.77626e-21)
(-0 -0 4.74677e-18)
(-0 -0 -4.75694e-18)
(-0 -0 3.38813e-21)
(-0 -0 3.38813e-21)
(-0 -0 0)
(-0 -0 -3.38813e-21)
(-0 -0 4.77388e-18)
(-0 -0 0)
(-0 -0 0)
(-0 -0 -3.38813e-21)
(-0 -0 -4.79421e-18)
(-0 -0 4.79759e-18)
(-0 -0 0)
(-0 -0 -3.38813e-21)
(-0 -0 0)
(-0 -0 -3.38813e-21)
(-0 -0 0)
(-0 -0 -4.82809e-18)
(-0 -0 4.82809e-18)
(-0 -0 0)
(-0 -0 0)
(-0 -0 3.38813e-21)
(-0 -0 -3.38813e-21)
(-0 -0 -4.85519e-18)
(-0 -0 4.85858e-18)
(-0 -0 3.38813e-21)
(-0 -0 -3.38813e-21)
(-0 -0 -4.86875e-18)
(-0 -0 4.8823e-18)
(-0 -0 0)
(-0 -0 0)
(-0 -0 -4.88569e-18)
(-0 -0 4.90263e-18)
(-0 -0 -4.90601e-18)
(-0 -0 0)
(-0 -0 4.90601e-18)
(-0 -0 0)
(-0 -0 0)
(-0 -0 -4.91957e-18)
(-0 -0 0)
(-0 -0 4.92973e-18)
(-0 -0 -4.94667e-18)
(-0 -0 3.38813e-21)
(-0 -0 4.95006e-18)
(-0 -0 -4.94667e-18)
(-0 -0 0)
(-0 -0 4.95345e-18)
(-0 -0 0)
(-0 -0 0)
(-0 -0 -4.967e-18)
(-0 -0 4.98394e-18)
(-0 -0 -3.38813e-21)
(-0 -0 0)
(-0 -0 3.38813e-21)
(-0 -0 -4.99411e-18)
(-0 -0 5.00088e-18)
(-0 -0 0)
(-0 -0 3.38813e-21)
(-0 -0 0)
(-0 -0 6.77626e-21)
(-0 -0 0)
(-0 -0 -6.77626e-21)
(-0 -0 3.38813e-21)
(-0 -0 -3.38813e-21)
(-0 -0 3.38813e-21)
(-0 -0 -5.04493e-18)
(-0 -0 5.05509e-18)
(-0 -0 0)
(-0 -0 6.77626e-21)
(-0 -0 -5.06526e-18)
(-0 -0 -3.38813e-21)
(-0 -0 5.07881e-18)
(-0 -0 -3.38813e-21)
(-0 -0 0)
(-0 -0 -3.38813e-21)
(-0 -0 3.38813e-21)
(-0 -0 -3.38813e-21)
(-0 -0 -3.38813e-21)
(-0 -0 -5.11269e-18)
(-0 -0 3.38813e-21)
(-0 -0 0)
(-0 -0 5.11947e-18)
(-0 -0 0)
(-0 -0 -3.38813e-21)
(-0 -0 -5.14657e-18)
(-0 -0 5.1398e-18)
(-0 -0 0)
(-0 -0 0)
(-0 -0 3.38813e-21)
(-0 -0 0)
(-0 -0 -5.1669e-18)
(-0 -0 5.17029e-18)
(-0 -0 0)
(-0 -0 -5.18384e-18)
(-0 -0 0)
(-0 -0 5.19401e-18)
(-0 -0 -5.19739e-18)
(-0 -0 5.20078e-18)
(-0 -0 -5.20417e-18)
(-0 -0 5.20756e-18)
(-0 -0 -3.38813e-21)
(-0 -0 0)
(-0 -0 0)
(-0 -0 -3.38813e-21)
(-0 -0 0)
(-0 -0 0)
(-0 -0 -5.24822e-18)
(-0 -0 5.24822e-18)
(-0 -0 -6.77626e-21)
(-0 -0 3.38813e-21)
(-0 -0 -5.26854e-18)
(-0 -0 5.26854e-18)
(-0 -0 0)
(-0 -0 -3.38813e-21)
(-0 -0 -5.29226e-18)
(-0 -0 5.28549e-18)
(-0 -0 -5.29904e-18)
(-0 -0 5.30243e-18)
(-0 -0 3.38813e-21)
(-0 -0 3.38813e-21)
(-0 -0 -5.31598e-18)
(-0 -0 5.31937e-18)
(-0 -0 -3.38813e-21)
(-0 -0 3.38813e-21)
(-0 -0 -3.38813e-21)
(-0 -0 0)
(-0 -0 -5.34647e-18)
(-0 -0 3.38813e-21)
(-0 -0 5.35664e-18)
(-0 -0 0)
(-0 -0 -5.3668e-18)
(-0 -0 5.35664e-18)
(-0 -0 -5.37697e-18)
(-0 -0 5.38374e-18)
(-0 -0 0)
(-0 -0 0)
(-0 -0 0)
(-0 -0 0)
(-0 -0 -5.40746e-18)
(-0 -0 5.41085e-18)
(-0 -0 -3.38813e-21)
(-0 -0 6.77626e-21)
(-0 -0 -5.4244e-18)
(-0 -0 5.42779e-18)
(-0 -0 -5.43795e-18)
(-0 -0 6.77626e-21)
(-0 -0 5.44812e-18)
(-0 -0 -5.44812e-18)
(-0 -0 -3.38813e-21)
(-0 -0 5.45828e-18)
(-0 -0 3.38813e-21)
(-0 -0 0)
(-0 -0 3.38813e-21)
(-0 -0 -5.482e-18)
(-0 -0 5.482e-18)
(-0 -0 0)
(-0 -0 0)
(-0 -0 0)
(-0 -0 0)
(-0 -0 0)
(-0 -0 -3.38813e-21)
(-0 -0 -5.52265e-18)
(-0 -0 -3.38813e-21)
(-0 -0 5.52943e-18)
(-0 -0 3.38813e-21)
(-0 -0 0)
(-0 -0 -3.38813e-21)
(-0 -0 0)
(-0 -0 0)
(-0 -0 3.38813e-21)
(-0 -0 -3.38813e-21)
(-0 -0 3.38813e-21)
(-0 -0 0)
(-0 -0 -5.58703e-18)
(-0 -0 0)
(-0 -0 5.59381e-18)
(-0 -0 0)
(-0 -0 -5.60736e-18)
(-0 -0 0)
(-0 -0 5.62091e-18)
(-0 -0 0)
(-0 -0 0)
(-0 -0 0)
(-0 -0 -3.38813e-21)
(-0 -0 0)
(-0 -0 0)