/*--------------------------------*- C++ -*----------------------------------*\
| =========                 |                                                 |
| \\      /  F ield         | OpenFOAM: The Open Source CFD Toolbox           |
|  \\    /   O peration     | Version:  v2012                                 |
|   \\  /    A nd           | Website:  www.openfoam.com                      |
|    \\/     M anipulation  |                                                 |
\*---------------------------------------------------------------------------*/
FoamFile
{
    version     2.0;
    format      ascii;
    class       volScalarField;
    location    "49";
    object      rho_a;
}
// * * * * * * * * * * * * * * * * * * * * * * * * * * * * * * * * * * * * * //

dimensions      [1 -3 0 0 0 0 0];


internalField   nonuniform List<scalar> 
3200
(
1.12463
1.12445
1.12428
1.1241
1.12393
1.12375
1.12357
1.1234
1.12322
1.12304
1.12286
1.12268
1.1225
1.12232
1.12214
1.12196
1.12178
1.1216
1.12142
1.12124
1.12106
1.12088
1.12069
1.12051
1.12033
1.12014
1.11996
1.11978
1.11959
1.11941
1.11922
1.11903
1.11885
1.11866
1.11847
1.11829
1.1181
1.11791
1.11772
1.11753
1.11735
1.11716
1.11697
1.11678
1.11659
1.11639
1.1162
1.11601
1.11582
1.11563
1.11544
1.11524
1.11505
1.11485
1.11466
1.11447
1.11427
1.11408
1.11388
1.11368
1.11349
1.11329
1.11309
1.1129
1.1127
1.1125
1.1123
1.1121
1.1119
1.11171
1.11151
1.1113
1.1111
1.1109
1.1107
1.1105
1.1103
1.1101
1.10989
1.10969
1.10949
1.10928
1.10908
1.10887
1.10867
1.10846
1.10826
1.10805
1.10784
1.10764
1.10743
1.10722
1.10701
1.1068
1.1066
1.10639
1.10618
1.10597
1.10576
1.10555
1.10534
1.10512
1.10491
1.1047
1.10449
1.10427
1.10406
1.10385
1.10363
1.10342
1.10321
1.10299
1.10277
1.10256
1.10234
1.10213
1.10191
1.10169
1.10147
1.10126
1.10104
1.10082
1.1006
1.10038
1.10016
1.09994
1.09972
1.0995
1.09928
1.09906
1.09883
1.09861
1.09839
1.09816
1.09794
1.09772
1.09749
1.09727
1.09704
1.09682
1.09659
1.09636
1.09614
1.09591
1.09568
1.09546
1.09523
1.095
1.09477
1.09454
1.09431
1.09408
1.09385
1.09362
1.09339
1.09316
1.09293
1.09269
1.09246
1.09223
1.09199
1.09176
1.09153
1.09129
1.09106
1.09082
1.09059
1.09035
1.09011
1.08988
1.08964
1.0894
1.08917
1.08893
1.08869
1.08845
1.08821
1.08797
1.08773
1.08749
1.08725
1.08701
1.08677
1.08652
1.08628
1.08604
1.0858
1.08555
1.08531
1.08506
1.08482
1.08457
1.08433
1.08408
1.08384
1.08359
1.08334
1.0831
1.08285
1.0826
1.08235
1.0821
1.08186
1.08161
1.08136
1.08111
1.08086
1.0806
1.08035
1.0801
1.07985
1.0796
1.07934
1.07909
1.07884
1.07858
1.07833
1.07807
1.07782
1.07756
1.07731
1.07705
1.07679
1.07654
1.07628
1.07602
1.07576
1.07551
1.07525
1.07499
1.07473
1.07447
1.07421
1.07395
1.07369
1.07342
1.07316
1.0729
1.07264
1.07237
1.07211
1.07185
1.07158
1.07132
1.07105
1.07079
1.07052
1.07026
1.06999
1.06972
1.06946
1.06919
1.06892
1.06865
1.06838
1.06812
1.06785
1.06758
1.06731
1.06704
1.06676
1.06649
1.06622
1.06595
1.06568
1.0654
1.06513
1.06486
1.06458
1.06431
1.06404
1.06376
1.06349
1.06321
1.06293
1.06266
1.06238
1.0621
1.06183
1.06155
1.06127
1.06099
1.06071
1.06043
1.06015
1.05987
1.05959
1.05931
1.05903
1.05875
1.05847
1.05818
1.0579
1.05762
1.05733
1.05705
1.05677
1.05648
1.0562
1.05591
1.05563
1.05534
1.05505
1.05477
1.05448
1.05419
1.0539
1.05361
1.05333
1.05304
1.05275
1.05246
1.05217
1.05188
1.05159
1.0513
1.051
1.05071
1.05042
1.05013
1.04983
1.04954
1.04925
1.04895
1.04866
1.04836
1.04807
1.04777
1.04748
1.04718
1.04688
1.04659
1.04629
1.04599
1.04569
1.04539
1.04509
1.0448
1.0445
1.0442
1.0439
1.04359
1.04329
1.04299
1.04269
1.04239
1.04209
1.04178
1.04148
1.04118
1.04087
1.04057
1.04026
1.03996
1.03965
1.03935
1.03904
1.03873
1.03843
1.03812
1.03781
1.0375
1.03719
1.03689
1.03658
1.03627
1.03596
1.03565
1.03534
1.03503
1.03471
1.0344
1.03409
1.03378
1.03347
1.03315
1.03284
1.03253
1.03221
1.0319
1.03158
1.03127
1.03095
1.03064
1.03032
1.03
1.02969
1.02937
1.02905
1.02873
1.02842
1.0281
1.02778
1.02746
1.02714
1.02682
1.0265
1.02618
1.02586
1.02553
1.02521
1.02489
1.02457
1.02424
1.02392
1.0236
1.02327
1.02295
1.02262
1.0223
1.02197
1.02165
1.02132
1.021
1.02067
1.02034
1.02001
1.01969
1.01936
1.01903
1.0187
1.01837
1.01804
1.01771
1.01738
1.01705
1.01672
1.01639
1.01606
1.01573
1.01539
1.01506
1.01473
1.01439
1.01406
1.01373
1.01339
1.01306
1.01272
1.01239
1.01205
1.01171
1.01138
1.01104
1.0107
1.01037
1.01003
1.00969
1.00935
1.00901
1.00867
1.00833
1.008
1.00765
1.00731
1.00697
1.00663
1.00629
1.00595
1.00561
1.00526
1.00492
1.00458
1.00423
1.00389
1.00355
1.0032
1.00286
1.00251
1.00217
1.00182
1.00147
1.00113
1.00078
1.00043
1.00009
0.999737
0.999389
0.99904
0.998692
0.998342
0.997993
0.997643
0.997293
0.996942
0.996591
0.99624
0.995888
0.995536
0.995184
0.994832
0.994479
0.994126
0.993772
0.993418
0.993064
0.99271
0.992355
0.992
0.991644
0.991288
0.990932
0.990576
0.990219
0.989862
0.989504
0.989147
0.988789
0.98843
0.988072
0.987713
0.987353
0.986994
0.986634
0.986273
0.985913
0.985552
0.98519
0.984829
0.984467
0.984105
0.983742
0.983379
0.983016
0.982653
0.982289
0.981925
0.98156
0.981195
0.98083
0.980465
0.980099
0.979733
0.979367
0.979
0.978633
0.978266
0.977898
0.977531
0.977162
0.976794
0.976425
0.976056
0.975686
0.975317
0.974947
0.974576
0.974205
0.973834
0.973463
0.973092
0.97272
0.972347
0.971975
0.971602
0.971229
0.970855
0.970482
0.970108
0.969733
0.969359
0.968984
0.968608
0.968233
0.967857
0.967481
0.967104
0.966727
0.96635
0.965973
0.965595
0.965217
0.964839
0.96446
0.964081
0.963702
0.963323
0.962943
0.962563
0.962182
0.961802
0.961421
0.96104
0.960658
0.960276
0.959894
0.959512
0.959129
0.958746
0.958362
0.957979
0.957595
0.957211
0.956826
0.956441
0.956056
0.955671
0.955285
0.954899
0.954513
0.954127
0.95374
0.953353
0.952965
0.952578
0.95219
0.951801
0.951413
0.951024
0.950635
0.950245
0.949856
0.949466
0.949076
0.948685
0.948294
0.947903
0.947512
0.94712
0.946728
0.946336
0.945943
0.945551
0.945157
0.944764
0.94437
0.943977
0.943582
0.943188
0.942793
0.942398
0.942003
0.941607
0.941211
0.940815
0.940419
0.940022
0.939625
0.939228
0.938831
0.938433
0.938035
0.937637
0.937238
0.936839
0.93644
0.936041
0.935641
0.935241
0.934841
0.93444
0.93404
0.933639
0.933237
0.932836
0.932434
0.932032
0.93163
0.931227
0.930824
0.930421
0.930018
0.929614
0.92921
0.928806
0.928401
0.927997
0.927592
0.927187
0.926781
0.926375
0.925969
0.925563
0.925157
0.92475
0.924343
0.923935
0.923528
0.92312
0.922712
0.922304
0.921895
0.921486
0.921077
0.920668
0.920258
0.919848
0.919438
0.919028
0.918617
0.918206
0.917795
0.917384
0.916972
0.916561
0.916148
0.915736
0.915323
0.914911
0.914498
0.914084
0.913671
0.913257
0.912843
0.912428
0.912014
0.911599
0.911184
0.910769
0.910353
0.909937
0.909521
0.909105
0.908688
0.908272
0.907855
0.907437
0.90702
0.906602
0.906184
0.905766
0.905348
0.904929
0.90451
0.904091
0.903672
0.903252
0.902832
0.902412
0.901992
0.901571
0.901151
0.90073
0.900308
0.899887
0.899465
0.899043
0.898621
0.898199
0.897776
0.897353
0.89693
0.896507
0.896083
0.89566
0.895236
0.894811
0.894387
0.893962
0.893537
0.893112
0.892687
0.892261
0.891836
0.89141
0.890983
0.890557
0.89013
0.889703
0.889276
0.888849
0.888421
0.887994
0.887566
0.887137
0.886709
0.88628
0.885852
0.885423
0.884993
0.884564
0.884134
0.883704
0.883274
0.882844
0.882413
0.881982
0.881551
0.88112
0.880689
0.880257
0.879825
0.879393
0.878961
0.878529
0.878096
0.877663
0.87723
0.876797
0.876363
0.87593
0.875496
0.875062
0.874627
0.874193
0.873758
0.873323
0.872888
0.872453
0.872017
0.871582
0.871146
0.87071
0.870273
0.869837
0.8694
0.868963
0.868526
0.868089
0.867651
0.867214
0.866776
0.866338
0.865899
0.865461
0.865022
0.864583
0.864144
0.863705
0.863266
0.862826
0.862386
0.861946
0.861506
0.861066
0.860625
0.860184
0.859743
0.859302
0.858861
0.858419
0.857978
0.857536
0.857094
0.856652
0.856209
0.855766
0.855324
0.854881
0.854438
0.853994
0.853551
0.853107
0.852663
0.852219
0.851775
0.85133
0.850886
0.850441
0.849996
0.849551
0.849106
0.84866
0.848215
0.847769
0.847323
0.846877
0.84643
0.845984
0.845537
0.84509
0.844643
0.844196
0.843749
0.843301
0.842853
0.842405
0.841957
0.841509
0.841061
0.840612
0.840164
0.839715
0.839266
0.838816
0.838367
0.837917
0.837468
0.837018
0.836568
0.836118
0.835667
0.835217
0.834766
0.834315
0.833864
0.833413
0.832962
0.83251
0.832059
0.831607
0.831155
0.830703
0.830251
0.829798
0.829346
0.828893
0.82844
0.827987
0.827534
0.827081
0.826627
0.826174
0.82572
0.825266
0.824812
0.824358
0.823903
0.823449
0.822994
0.822539
0.822084
0.821629
0.821174
0.820719
0.820263
0.819807
0.819352
0.818896
0.818439
0.817983
0.817527
0.81707
0.816614
0.816157
0.8157
0.815243
0.814785
0.814328
0.813871
0.813413
0.812955
0.812497
0.812039
0.811581
0.811123
0.810664
0.810206
0.809747
0.809288
0.808829
0.80837
0.807911
0.807451
0.806992
0.806532
0.806072
0.805612
0.805152
0.804692
0.804232
0.803771
0.803311
0.80285
0.802389
0.801928
0.801467
0.801006
0.800545
0.800083
0.799622
0.79916
0.798698
0.798237
0.797774
0.797312
0.79685
0.796388
0.795925
0.795463
0.795
0.794537
0.794074
0.793611
0.793148
0.792684
0.792221
0.791757
0.791294
0.79083
0.790366
0.789902
0.789438
0.788974
0.788509
0.788045
0.78758
0.787116
0.786651
0.786186
0.785721
0.785256
0.784791
0.784325
0.78386
0.783394
0.782929
0.782463
0.781997
0.781531
0.781065
0.780599
0.780133
0.779666
0.7792
0.778733
0.778267
0.7778
0.777333
0.776866
0.776399
0.775932
0.775465
0.774997
0.77453
0.774062
0.773595
0.773127
0.772659
0.772191
0.771723
0.771255
0.770787
0.770318
0.76985
0.769382
0.768913
0.768444
0.767976
0.767507
0.767038
0.766569
0.7661
0.76563
0.765161
0.764692
0.764222
0.763753
0.763283
0.762813
0.762344
0.761874
0.761404
0.760934
0.760464
0.759993
0.759523
0.759053
0.758582
0.758112
0.757641
0.757171
0.7567
0.756229
0.755758
0.755287
0.754816
0.754345
0.753874
0.753402
0.752931
0.752459
0.751988
0.751516
0.751045
0.750573
0.750101
0.749629
0.749157
0.748685
0.748213
0.747741
0.747269
0.746796
0.746324
0.745852
0.745379
0.744907
0.744434
0.743961
0.743488
0.743016
0.742543
0.74207
0.741597
0.741124
0.74065
0.740177
0.739704
0.739231
0.738757
0.738284
0.73781
0.737337
0.736863
0.736389
0.735916
0.735442
0.734968
0.734494
0.73402
0.733546
0.733072
0.732598
0.732124
0.731649
0.731175
0.730701
0.730226
0.729752
0.729277
0.728803
0.728328
0.727853
0.727379
0.726904
0.726429
0.725954
0.725479
0.725004
0.724529
0.724054
0.723579
0.723104
0.722629
0.722154
0.721679
0.721203
0.720728
0.720252
0.719777
0.719302
0.718826
0.71835
0.717875
0.717399
0.716923
0.716448
0.715972
0.715496
0.71502
0.714544
0.714069
0.713593
0.713117
0.712641
0.712165
0.711688
0.711212
0.710736
0.71026
0.709784
0.709307
0.708831
0.708355
0.707878
0.707402
0.706926
0.706449
0.705973
0.705496
0.70502
0.704543
0.704067
0.70359
0.703113
0.702637
0.70216
0.701683
0.701207
0.70073
0.700253
0.699776
0.699299
0.698822
0.698346
0.697869
0.697392
0.696915
0.696438
0.695961
0.695484
0.695007
0.69453
0.694053
0.693576
0.693099
0.692621
0.692144
0.691667
0.69119
0.690713
0.690236
0.689758
0.689281
0.688804
0.688327
0.687849
0.687372
0.686895
0.686418
0.68594
0.685463
0.684986
0.684508
0.684031
0.683554
0.683076
0.682599
0.682121
0.681644
0.681167
0.680689
0.680212
0.679734
0.679257
0.67878
0.678302
0.677825
0.677347
0.67687
0.676392
0.675915
0.675438
0.67496
0.674483
0.674005
0.673528
0.67305
0.672573
0.672095
0.671618
0.671141
0.670663
0.670186
0.669708
0.669231
0.668753
0.668276
0.667799
0.667321
0.666844
0.666366
0.665889
0.665412
0.664934
0.664457
0.66398
0.663502
0.663025
0.662548
0.66207
0.661593
0.661116
0.660638
0.660161
0.659684
0.659207
0.658729
0.658252
0.657775
0.657298
0.656821
0.656343
0.655866
0.655389
0.654912
0.654435
0.653958
0.653481
0.653004
0.652527
0.65205
0.651573
0.651096
0.650619
0.650142
0.649665
0.649188
0.648711
0.648234
0.647757
0.647281
0.646804
0.646327
0.64585
0.645374
0.644897
0.64442
0.643944
0.643467
0.64299
0.642514
0.642037
0.641561
0.641084
0.640608
0.640131
0.639655
0.639179
0.638702
0.638226
0.63775
0.637274
0.636797
0.636321
0.635845
0.635369
0.634893
0.634417
0.633941
0.633465
0.632989
0.632513
0.632037
0.631561
0.631085
0.63061
0.630134
0.629658
0.629183
0.628707
0.628231
0.627756
0.62728
0.626805
0.626329
0.625854
0.625379
0.624903
0.624428
0.623953
0.623478
0.623002
0.622527
0.622052
0.621577
0.621102
0.620627
0.620152
0.619678
0.619203
0.618728
0.618253
0.617779
0.617304
0.61683
0.616355
0.615881
0.615406
0.614932
0.614457
0.613983
0.613509
0.613035
0.612561
0.612087
0.611613
0.611139
0.610665
0.610191
0.609717
0.609243
0.60877
0.608296
0.607822
0.607349
0.606875
0.606402
0.605928
0.605455
0.604982
0.604509
0.604035
0.603562
0.603089
0.602616
0.602143
0.60167
0.601198
0.600725
0.600252
0.59978
0.599307
0.598834
0.598362
0.59789
0.597417
0.596945
0.596473
0.596001
0.595529
0.595057
0.594585
0.594113
0.593641
0.593169
0.592697
0.592226
0.591754
0.591283
0.590811
0.59034
0.589869
0.589397
0.588926
0.588455
0.587984
0.587513
0.587042
0.586572
0.586101
0.58563
0.58516
0.584689
0.584219
0.583748
0.583278
0.582808
0.582337
0.581867
0.581397
0.580927
0.580457
0.579988
0.579518
0.579048
0.578579
0.578109
0.57764
0.57717
0.576701
0.576232
0.575763
0.575294
0.574825
0.574356
0.573887
0.573418
0.57295
0.572481
0.572013
0.571544
0.571076
0.570607
0.570139
0.569671
0.569203
0.568735
0.568267
0.5678
0.567332
0.566864
0.566397
0.565929
0.565462
0.564995
0.564528
0.564061
0.563594
0.563127
0.56266
0.562193
0.561726
0.56126
0.560793
0.560327
0.559861
0.559394
0.558928
0.558462
0.557996
0.55753
0.557065
0.556599
0.556133
0.555668
0.555202
0.554737
0.554272
0.553807
0.553342
0.552877
0.552412
0.551947
0.551482
0.551018
0.550553
0.550089
0.549625
0.54916
0.548696
0.548232
0.547768
0.547304
0.546841
0.546377
0.545914
0.54545
0.544987
0.544524
0.54406
0.543597
0.543134
0.542672
0.542209
0.541746
0.541284
0.540821
0.540359
0.539897
0.539434
0.538972
0.538511
0.538049
0.537587
0.537125
0.536664
0.536202
0.535741
0.53528
0.534819
0.534358
0.533897
0.533436
0.532975
0.532515
0.532054
0.531594
0.531134
0.530673
0.530213
0.529753
0.529294
0.528834
0.528374
0.527915
0.527455
0.526996
0.526537
0.526078
0.525619
0.52516
0.524701
0.524242
0.523784
0.523325
0.522867
0.522409
0.521951
0.521493
0.521035
0.520577
0.52012
0.519662
0.519205
0.518747
0.51829
0.517833
0.517376
0.516919
0.516462
0.516006
0.515549
0.515093
0.514637
0.514181
0.513725
0.513269
0.512813
0.512357
0.511902
0.511446
0.510991
0.510536
0.51008
0.509626
0.509171
0.508716
0.508261
0.507807
0.507352
0.506898
0.506444
0.50599
0.505536
0.505082
0.504629
0.504175
0.503722
0.503268
0.502815
0.502362
0.501909
0.501457
0.501004
0.500551
0.500099
0.499647
0.499194
0.498742
0.49829
0.497839
0.497387
0.496935
0.496484
0.496033
0.495582
0.495131
0.49468
0.494229
0.493778
0.493328
0.492877
0.492427
0.491977
0.491527
0.491077
0.490627
0.490178
0.489728
0.489279
0.488829
0.48838
0.487931
0.487483
0.487034
0.486585
0.486137
0.485688
0.48524
0.484792
0.484344
0.483896
0.483449
0.483001
0.482554
0.482107
0.48166
0.481213
0.480766
0.480319
0.479872
0.479426
0.47898
0.478533
0.478087
0.477641
0.477196
0.47675
0.476305
0.475859
0.475414
0.474969
0.474524
0.474079
0.473634
0.47319
0.472745
0.472301
0.471857
0.471413
0.470969
0.470526
0.470082
0.469639
0.469195
0.468752
0.468309
0.467866
0.467424
0.466981
0.466538
0.466096
0.465654
0.465212
0.46477
0.464328
0.463887
0.463445
0.463004
0.462563
0.462122
0.461681
0.46124
0.4608
0.460359
0.459919
0.459479
0.459039
0.458599
0.458159
0.45772
0.45728
0.456841
0.456402
0.455963
0.455524
0.455085
0.454647
0.454208
0.45377
0.453332
0.452894
0.452456
0.452018
0.451581
0.451144
0.450706
0.450269
0.449832
0.449396
0.448959
0.448522
0.448086
0.44765
0.447214
0.446778
0.446342
0.445907
0.445471
0.445036
0.444601
0.444166
0.443731
0.443296
0.442862
0.442428
0.441993
0.441559
0.441125
0.440692
0.440258
0.439825
0.439391
0.438958
0.438525
0.438092
0.43766
0.437227
0.436795
0.436363
0.435931
0.435499
0.435067
0.434635
0.434204
0.433773
0.433341
0.43291
0.43248
0.432049
0.431619
0.431188
0.430758
0.430328
0.429898
0.429468
0.429039
0.428609
0.42818
0.427751
0.427322
0.426893
0.426465
0.426036
0.425608
0.42518
0.424752
0.424324
0.423896
0.423469
0.423042
0.422615
0.422187
0.421761
0.421334
0.420907
0.420481
0.420055
0.419629
0.419203
0.418777
0.418352
0.417926
0.417501
0.417076
0.416651
0.416226
0.415802
0.415377
0.414953
0.414529
0.414105
0.413681
0.413258
0.412834
0.412411
0.411988
0.411565
0.411142
0.410719
0.410297
0.409875
0.409453
0.409031
0.408609
0.408187
0.407766
0.407344
0.406923
0.406502
0.406081
0.405661
0.40524
0.40482
0.4044
0.40398
0.40356
0.403141
0.402721
0.402302
0.401883
0.401464
0.401045
0.400626
0.400208
0.39979
0.399371
0.398953
0.398536
0.398118
0.397701
0.397283
0.396866
0.396449
0.396033
0.395616
0.395199
0.394783
0.394367
0.393951
0.393535
0.39312
0.392705
0.392289
0.391874
0.391459
0.391045
0.39063
0.390216
0.389801
0.389387
0.388974
0.38856
0.388146
0.387733
0.38732
0.386907
0.386494
0.386081
0.385669
0.385257
0.384844
0.384433
0.384021
0.383609
0.383198
0.382786
0.382375
0.381964
0.381554
0.381143
0.380733
0.380322
0.379912
0.379503
0.379093
0.378683
0.378274
0.377865
0.377456
0.377047
0.376638
0.37623
0.375822
0.375413
0.375006
0.374598
0.37419
0.373783
0.373376
0.372969
0.372562
0.372155
0.371748
0.371342
0.370936
0.37053
0.370124
0.369718
0.369313
0.368908
0.368503
0.368098
0.367693
0.367288
0.366884
0.36648
0.366076
0.365672
0.365268
0.364865
0.364461
0.364058
0.363655
0.363252
0.36285
0.362447
0.362045
0.361643
0.361241
0.36084
0.360438
0.360037
0.359636
0.359235
0.358834
0.358433
0.358033
0.357632
0.357232
0.356832
0.356433
0.356033
0.355634
0.355235
0.354836
0.354437
0.354038
0.35364
0.353242
0.352843
0.352446
0.352048
0.35165
0.351253
0.350856
0.350459
0.350062
0.349665
0.349269
0.348873
0.348477
0.348081
0.347685
0.34729
0.346894
0.346499
0.346104
0.345709
0.345315
0.34492
0.344526
0.344132
0.343738
0.343344
0.342951
0.342558
0.342164
0.341772
0.341379
0.340986
0.340594
0.340202
0.33981
0.339418
0.339026
0.338635
0.338243
0.337852
0.337461
0.337071
0.33668
0.33629
0.3359
0.33551
0.33512
0.33473
0.334341
0.333951
0.333562
0.333174
0.332785
0.332396
0.332008
0.33162
0.331232
0.330844
0.330457
0.330069
0.329682
0.329295
0.328908
0.328522
0.328135
0.327749
0.327363
0.326977
0.326591
0.326206
0.325821
0.325436
0.325051
0.324666
0.324281
0.323897
0.323513
0.323129
0.322745
0.322361
0.321978
0.321595
0.321212
0.320829
0.320446
0.320064
0.319681
0.319299
0.318917
0.318535
0.318154
0.317773
0.317391
0.31701
0.31663
0.316249
0.315869
0.315488
0.315108
0.314729
0.314349
0.313969
0.31359
0.313211
0.312832
0.312454
0.312075
0.311697
0.311319
0.310941
0.310563
0.310185
0.309808
0.309431
0.309054
0.308677
0.3083
0.307924
0.307548
0.307172
0.306796
0.30642
0.306045
0.30567
0.305294
0.30492
0.304545
0.30417
0.303796
0.303422
0.303048
0.302674
0.302301
0.301927
0.301554
0.301181
0.300808
0.300436
0.300063
0.299691
0.299319
0.298947
0.298576
0.298204
0.297833
0.297462
0.297091
0.296721
0.29635
0.29598
0.29561
0.29524
0.29487
0.294501
0.294131
0.293762
0.293393
0.293024
0.292656
0.292287
0.291919
0.291551
0.291184
0.290816
0.290449
0.290081
0.289714
0.289348
0.288981
0.288615
0.288248
0.287882
0.287516
0.287151
0.286785
0.28642
0.286055
0.28569
0.285325
0.284961
0.284597
0.284232
0.283869
0.283505
0.283141
0.282778
0.282415
0.282052
0.281689
0.281327
0.280964
0.280602
0.28024
0.279878
0.279517
0.279155
0.278794
0.278433
0.278072
0.277712
0.277351
0.276991
0.276631
0.276271
0.275911
0.275552
0.275193
0.274834
0.274475
0.274116
0.273758
0.273399
0.273041
0.272683
0.272326
0.271968
0.271611
0.271254
0.270897
0.27054
0.270183
0.269827
0.269471
0.269115
0.268759
0.268404
0.268048
0.267693
0.267338
0.266983
0.266629
0.266274
0.26592
0.265566
0.265212
0.264859
0.264505
0.264152
0.263799
0.263446
0.263094
0.262741
0.262389
0.262037
0.261685
0.261333
0.260982
0.260631
0.26028
0.259929
0.259578
0.259228
0.258877
0.258527
0.258177
0.257828
0.257478
0.257129
0.25678
0.256431
0.256082
0.255733
0.255385
0.255037
0.254689
0.254341
0.253994
0.253646
0.253299
0.252952
0.252605
0.252259
0.251912
0.251566
0.25122
0.250875
0.250529
0.250183
0.249838
0.249493
0.249148
0.248804
0.248459
0.248115
0.247771
0.247427
0.247084
0.24674
0.246397
0.246054
0.245711
0.245368
0.245026
0.244684
0.244342
0.244
0.243658
0.243316
0.242975
0.242634
0.242293
0.241952
0.241612
0.241272
0.240932
0.240592
0.240252
0.239912
0.239573
0.239234
0.238895
0.238556
0.238218
0.237879
0.237541
0.237203
0.236865
0.236528
0.23619
0.235853
0.235516
0.235179
0.234843
0.234506
0.23417
0.233834
0.233498
0.233163
0.232827
0.232492
0.232157
0.231822
0.231488
0.231153
0.230819
0.230485
0.230151
0.229817
0.229484
0.229151
0.228818
0.228485
0.228152
0.22782
0.227487
0.227155
0.226823
0.226492
0.22616
0.225829
0.225498
0.225167
0.224836
0.224506
0.224175
0.223845
0.223515
0.223185
0.222856
0.222526
0.222197
0.221868
0.22154
0.221211
0.220883
0.220554
0.220226
0.219899
0.219571
0.219244
0.218916
0.218589
0.218263
0.217936
0.21761
0.217283
0.216957
0.216632
0.216306
0.21598
0.215655
0.21533
0.215005
0.214681
0.214356
0.214032
0.213708
0.213384
0.21306
0.212737
0.212413
0.21209
0.211767
0.211445
0.211122
0.2108
0.210478
0.210156
0.209834
0.209513
0.209191
0.20887
0.208549
0.208228
0.207908
0.207587
0.207267
0.206947
0.206627
0.206308
0.205988
0.205669
0.20535
0.205031
0.204713
0.204394
0.204076
0.203758
0.20344
0.203123
0.202805
0.202488
0.202171
0.201854
0.201537
0.201221
0.200905
0.200588
0.200273
0.199957
0.199641
0.199326
0.199011
0.198696
0.198381
0.198067
0.197752
0.197438
0.197124
0.196811
0.196497
0.196184
0.19587
0.195557
0.195245
0.194932
0.19462
0.194307
0.193995
0.193684
0.193372
0.193061
0.192749
0.192438
0.192127
0.191817
0.191506
0.191196
0.190886
0.190576
0.190266
0.189957
0.189648
0.189338
0.18903
0.188721
0.188412
0.188104
0.187796
0.187488
0.18718
0.186873
0.186565
0.186258
0.185951
0.185644
0.185338
0.185031
0.184725
0.184419
0.184113
0.183808
0.183502
0.183197
0.182892
0.182587
0.182282
0.181978
0.181673
0.181369
0.181066
0.180762
0.180458
0.180155
0.179852
0.179549
0.179246
0.178944
0.178641
0.178339
0.178037
0.177735
0.177434
0.177132
0.176831
0.17653
0.176229
0.175929
0.175628
0.175328
0.175028
0.174728
0.174428
0.174129
0.17383
0.17353
0.173232
0.172933
0.172634
0.172336
0.172038
0.17174
0.171442
0.171145
0.170847
0.17055
0.170253
0.169956
0.16966
0.169363
0.169067
0.168771
0.168475
0.168179
0.167884
0.167589
0.167294
0.166999
0.166704
0.166409
0.166115
0.165821
0.165527
0.165233
0.16494
0.164646
0.164353
0.16406
0.163767
0.163475
0.163182
0.16289
0.162598
0.162306
0.162015
0.161723
0.161432
0.161141
0.16085
0.160559
0.160269
0.159978
0.159688
0.159398
0.159108
0.158819
0.158529
0.15824
0.157951
0.157662
0.157374
0.157085
0.156797
0.156509
0.156221
0.155933
0.155646
0.155359
0.155072
0.154785
0.154498
0.154211
0.153925
0.153639
0.153353
0.153067
0.152781
0.152496
0.152211
0.151926
0.151641
0.151356
0.151072
0.150787
0.150503
0.150219
0.149936
0.149652
0.149369
0.149086
0.148803
0.14852
0.148237
0.147955
0.147673
0.147391
0.147109
0.146827
0.146546
0.146264
0.145983
0.145702
0.145422
0.145141
0.144861
0.14458
0.1443
0.144021
0.143741
0.143462
0.143182
0.142903
0.142624
0.142346
0.142067
0.141789
0.141511
0.141233
0.140955
0.140678
0.1404
0.140123
0.139846
0.139569
0.139293
0.139016
0.13874
0.138464
0.138188
0.137912
0.137637
0.137361
0.137086
0.136811
0.136537
0.136262
0.135988
0.135713
0.135439
0.135165
0.134892
0.134618
0.134345
0.134072
0.133799
0.133526
0.133254
0.132981
0.132709
0.132437
0.132165
0.131894
0.131622
0.131351
0.13108
0.130809
0.130538
0.130268
0.129997
0.129727
0.129457
0.129187
0.128918
0.128648
0.128379
0.12811
0.127841
0.127573
0.127304
0.127036
0.126768
0.1265
0.126232
0.125964
0.125697
0.12543
0.125163
0.124896
0.124629
0.124363
0.124096
0.12383
0.123564
0.123298
0.123033
0.122767
0.122502
0.122237
0.121972
0.121708
0.121443
0.121179
0.120915
0.120651
0.120387
0.120123
0.11986
0.119597
0.119334
0.119071
0.118808
0.118546
0.118283
0.118021
0.117759
0.117497
0.117236
0.116974
0.116713
0.116452
0.116191
0.115931
0.11567
0.11541
0.11515
0.11489
0.11463
0.11437
0.114111
0.113852
0.113592
0.113334
0.113075
0.112816
0.112558
0.1123
0.112042
0.111784
0.111526
0.111269
0.111012
0.110755
0.110498
0.110241
0.109984
0.109728
0.109472
0.109216
0.10896
0.108704
0.108449
0.108193
0.107938
0.107683
0.107429
0.107174
0.10692
0.106665
0.106411
0.106157
0.105904
0.10565
0.105397
0.105144
0.104891
0.104638
0.104385
0.104133
0.103881
0.103628
0.103376
0.103125
0.102873
0.102622
0.102371
0.10212
0.101869
0.101618
0.101367
0.101117
0.100867
0.100617
0.100367
0.100118
0.0998681
0.0996188
0.0993697
0.0991208
0.098872
0.0986235
0.0983751
0.0981268
0.0978788
0.0976309
0.0973832
0.0971357
0.0968884
0.0966412
0.0963942
0.0961474
0.0959007
0.0956543
0.095408
0.0951619
0.0949159
0.0946701
0.0944246
0.0941791
0.0939339
0.0936888
0.0934439
0.0931992
0.0929547
0.0927103
0.0924661
0.0922221
0.0919782
0.0917345
0.091491
0.0912477
0.0910045
0.0907615
0.0905187
0.0902761
0.0900336
0.0897914
0.0895492
0.0893073
0.0890655
0.0888239
0.0885825
0.0883412
0.0881002
0.0878593
0.0876185
0.087378
0.0871376
0.0868974
0.0866573
0.0864174
0.0861777
0.0859382
0.0856989
0.0854597
0.0852207
0.0849818
0.0847432
0.0845047
0.0842663
0.0840282
0.0837902
0.0835524
0.0833148
0.0830773
0.08284
0.0826029
0.0823659
0.0821291
0.0818925
0.0816561
0.0814198
0.0811837
0.0809478
0.080712
0.0804764
0.080241
0.0800057
0.0797707
0.0795358
0.079301
0.0790664
0.078832
0.0785978
0.0783638
0.0781299
0.0778961
0.0776626
0.0774292
0.077196
0.076963
0.0767301
0.0764974
0.0762648
0.0760325
0.0758003
0.0755682
0.0753364
0.0751047
0.0748732
0.0746418
0.0744106
0.0741796
0.0739487
0.0737181
0.0734875
0.0732572
0.073027
0.072797
0.0725672
0.0723375
0.072108
0.0718786
0.0716495
0.0714205
0.0711916
0.0709629
0.0707344
0.0705061
0.0702779
0.0700499
0.0698221
0.0695944
0.0693669
0.0691396
0.0689124
0.0686854
0.0684586
0.0682319
0.0680054
0.0677791
0.0675529
0.0673269
0.067101
0.0668754
0.0666498
0.0664245
0.0661993
0.0659743
0.0657495
0.0655248
0.0653003
0.0650759
0.0648517
0.0646277
0.0644038
0.0641802
0.0639566
0.0637333
0.0635101
0.063287
0.0630642
0.0628415
0.0626189
0.0623965
0.0621743
0.0619523
0.0617304
0.0615087
0.0612871
0.0610657
0.0608445
0.0606234
0.0604025
0.0601818
0.0599612
0.0597408
0.0595205
0.0593005
0.0590805
0.0588608
0.0586412
0.0584217
0.0582025
0.0579834
0.0577644
0.0575456
0.057327
0.0571085
0.0568902
0.0566721
0.0564541
0.0562363
0.0560187
0.0558012
0.0555839
0.0553667
0.0551497
0.0549328
0.0547162
0.0544996
0.0542833
0.0540671
0.0538511
0.0536352
0.0534195
0.0532039
0.0529885
0.0527733
0.0525582
0.0523433
0.0521286
0.051914
0.0516995
0.0514853
0.0512712
0.0510572
0.0508434
0.0506298
0.0504163
0.050203
0.0499898
0.0497769
0.049564
0.0493514
0.0491388
0.0489265
0.0487143
0.0485023
0.0482904
0.0480787
0.0478671
0.0476557
0.0474445
0.0472334
0.0470224
0.0468117
0.0466011
0.0463906
0.0461803
0.0459702
0.0457602
0.0455504
0.0453407
0.0451312
0.0449219
0.0447127
0.0445037
0.0442948
0.0440861
0.0438775
0.0436691
0.0434609
0.0432528
0.0430448
0.0428371
0.0426295
0.042422
0.0422147
0.0420075
0.0418005
0.0415937
0.041387
0.0411805
0.0409741
0.0407679
0.0405619
0.040356
0.0401502
0.0399446
0.0397392
0.0395339
0.0393288
0.0391238
0.038919
0.0387144
0.0385099
0.0383055
0.0381013
0.0378973
0.0376934
0.0374897
0.0372861
0.0370827
0.0368794
0.0366763
0.0364734
0.0362706
0.0360679
0.0358654
0.0356631
0.0354609
0.0352589
0.035057
0.0348553
0.0346537
0.0344523
0.034251
0.0340499
0.0338489
0.0336481
0.0334475
0.033247
0.0330466
0.0328464
0.0326464
0.0324465
0.0322468
0.0320472
0.0318478
0.0316485
0.0314494
0.0312504
0.0310516
0.0308529
0.0306544
0.030456
0.0302578
0.0300597
0.0298618
0.029664
0.0294664
0.029269
0.0290717
0.0288745
0.0286775
0.0284806
0.0282839
0.0280874
0.027891
0.0276947
0.0274986
0.0273027
0.0271069
0.0269112
0.0267157
0.0265203
0.0263251
0.0261301
0.0259352
0.0257404
0.0255458
0.0253514
0.0251571
0.0249629
0.0247689
0.0245751
0.0243813
0.0241878
0.0239944
0.0238011
0.023608
0.023415
0.0232222
0.0230296
0.022837
0.0226447
0.0224524
0.0222604
0.0220684
0.0218767
0.021685
0.0214936
0.0213022
0.021111
0.02092
0.0207291
0.0205384
0.0203478
0.0201573
0.019967
0.0197769
0.0195869
0.019397
0.0192073
0.0190177
0.0188283
0.018639
0.0184499
0.0182609
0.0180721
0.0178834
0.0176948
0.0175064
0.0173182
0.0171301
0.0169421
0.0167543
0.0165666
0.0163791
0.0161917
0.0160045
0.0158174
0.0156305
0.0154437
0.015257
0.0150705
0.0148842
0.0146979
0.0145119
0.0143259
0.0141402
0.0139545
0.013769
0.0135837
0.0133985
0.0132134
0.0130285
0.0128437
0.0126591
0.0124746
0.0122903
0.0121061
0.011922
0.0117381
0.0115543
0.0113707
0.0111872
0.0110039
0.0108207
0.0106376
0.0104547
0.0102719
0.0100893
0.00990684
0.0097245
0.0095423
0.00936025
0.00917833
0.00899656
0.00881493
0.00863345
0.0084521
0.0082709
0.00808983
0.00790891
0.00772814
0.0075475
0.007367
0.00718665
0.00700644
0.00682636
0.00664643
0.00646664
0.00628699
0.00610748
0.00592812
0.00574889
0.0055698
0.00539086
0.00521205
0.00503339
0.00485486
0.00467647
0.00449823
0.00432012
0.00414216
0.00396433
0.00378665
0.0036091
0.00343169
0.00325443
0.0030773
0.00290031
0.00272346
0.00254675
0.00237018
0.00219375
0.00201745
0.0018413
0.00166528
0.0014894
0.00131366
0.00113806
0.000962599
0.000787275
0.000612089
0.000437041
0.00026213
8.7358e-05
)
;

boundaryField
{
    bottom
    {
        type            fixedValue;
        value           uniform 1.12472;
    }
    top
    {
        type            fixedValue;
        value           uniform 0;
    }
    sidesX
    {
        type            empty;
    }
    sidesY
    {
        type            empty;
    }
}


// ************************************************************************* //
