/*--------------------------------*- C++ -*----------------------------------*\
| =========                 |                                                 |
| \\      /  F ield         | OpenFOAM: The Open Source CFD Toolbox           |
|  \\    /   O peration     | Version:  v2012                                 |
|   \\  /    A nd           | Website:  www.openfoam.com                      |
|    \\/     M anipulation  |                                                 |
\*---------------------------------------------------------------------------*/
FoamFile
{
    version     2.0;
    format      ascii;
    class       volVectorField;
    location    "0.9";
    object      U_ver;
}
// * * * * * * * * * * * * * * * * * * * * * * * * * * * * * * * * * * * * * //

dimensions      [0 1 -1 0 0 0 0];


internalField   nonuniform List<vector> 
100
(
(0 0 4.37184e-06)
(0 0 4.35954e-06)
(0 0 4.34731e-06)
(0 0 4.33515e-06)
(0 0 4.32306e-06)
(0 0 4.31104e-06)
(0 0 4.29908e-06)
(0 0 4.28719e-06)
(0 0 4.27537e-06)
(0 0 4.26361e-06)
(0 0 4.25191e-06)
(0 0 4.24028e-06)
(0 0 4.22871e-06)
(0 0 4.2172e-06)
(0 0 4.20576e-06)
(0 0 4.19438e-06)
(0 0 4.18306e-06)
(0 0 4.1718e-06)
(0 0 4.1606e-06)
(0 0 4.14947e-06)
(0 0 4.13839e-06)
(0 0 4.12737e-06)
(0 0 4.11641e-06)
(0 0 4.1055e-06)
(0 0 4.09466e-06)
(0 0 4.08387e-06)
(0 0 4.07314e-06)
(0 0 4.06246e-06)
(0 0 4.05184e-06)
(0 0 4.04128e-06)
(0 0 4.03077e-06)
(0 0 4.02031e-06)
(0 0 4.00991e-06)
(0 0 3.99957e-06)
(0 0 3.98927e-06)
(0 0 3.97903e-06)
(0 0 3.96884e-06)
(0 0 3.95871e-06)
(0 0 3.94862e-06)
(0 0 3.93859e-06)
(0 0 3.92861e-06)
(0 0 3.91867e-06)
(0 0 3.90879e-06)
(0 0 3.89896e-06)
(0 0 3.88918e-06)
(0 0 3.87944e-06)
(0 0 3.86976e-06)
(0 0 3.86012e-06)
(0 0 3.85053e-06)
(0 0 3.84099e-06)
(0 0 3.83149e-06)
(0 0 3.82204e-06)
(0 0 3.81264e-06)
(0 0 3.80329e-06)
(0 0 3.79398e-06)
(0 0 3.78471e-06)
(0 0 3.7755e-06)
(0 0 3.76632e-06)
(0 0 3.75719e-06)
(0 0 3.74811e-06)
(0 0 3.73907e-06)
(0 0 3.73007e-06)
(0 0 3.72111e-06)
(0 0 3.7122e-06)
(0 0 3.70333e-06)
(0 0 3.6945e-06)
(0 0 3.68572e-06)
(0 0 3.67698e-06)
(0 0 3.66827e-06)
(0 0 3.65961e-06)
(0 0 3.65099e-06)
(0 0 3.64241e-06)
(0 0 3.63387e-06)
(0 0 3.62537e-06)
(0 0 3.61691e-06)
(0 0 3.60849e-06)
(0 0 3.60011e-06)
(0 0 3.59177e-06)
(0 0 3.58347e-06)
(0 0 3.5752e-06)
(0 0 3.56697e-06)
(0 0 3.55878e-06)
(0 0 3.55063e-06)
(0 0 3.54252e-06)
(0 0 3.53444e-06)
(0 0 3.5264e-06)
(0 0 3.51839e-06)
(0 0 3.51042e-06)
(0 0 3.50249e-06)
(0 0 3.4946e-06)
(0 0 3.48673e-06)
(0 0 3.47891e-06)
(0 0 3.47112e-06)
(0 0 3.46336e-06)
(0 0 3.45564e-06)
(0 0 3.44795e-06)
(0 0 3.4403e-06)
(0 0 3.43268e-06)
(0 0 3.4251e-06)
(0 0 3.41754e-06)
)
;

boundaryField
{
    bottom
    {
        type            calculated;
        value           uniform (0 0 4.37801e-06);
    }
    top
    {
        type            calculated;
        value           uniform (0 0 3.41378e-06);
    }
    sidesX
    {
        type            empty;
    }
    sidesY
    {
        type            empty;
    }
}


// ************************************************************************* //
