/*--------------------------------*- C++ -*----------------------------------*\
| =========                 |                                                 |
| \\      /  F ield         | OpenFOAM: The Open Source CFD Toolbox           |
|  \\    /   O peration     | Version:  v2012                                 |
|   \\  /    A nd           | Website:  www.openfoam.com                      |
|    \\/     M anipulation  |                                                 |
\*---------------------------------------------------------------------------*/
FoamFile
{
    version     2.0;
    format      ascii;
    class       volScalarField;
    location    "49.5";
    object      rho_b;
}
// * * * * * * * * * * * * * * * * * * * * * * * * * * * * * * * * * * * * * //

dimensions      [1 -3 0 0 0 0 0];


internalField   nonuniform List<scalar> 
300
(
0.300586
0.303224
0.305864
0.308506
0.311151
0.313798
0.316447
0.319098
0.321751
0.324407
0.327065
0.329725
0.332387
0.335051
0.337718
0.340387
0.343058
0.345731
0.348407
0.351084
0.353764
0.356446
0.359131
0.361817
0.364506
0.367197
0.369891
0.372586
0.375284
0.377984
0.380686
0.383391
0.386097
0.388806
0.391517
0.394231
0.396947
0.399665
0.402385
0.405107
0.407832
0.410559
0.413288
0.41602
0.418754
0.42149
0.424228
0.426969
0.429712
0.432457
0.435204
0.437954
0.440706
0.44346
0.446217
0.448976
0.451737
0.4545
0.457266
0.460034
0.462804
0.465577
0.468352
0.471129
0.473908
0.47669
0.479474
0.482261
0.485049
0.487841
0.490634
0.49343
0.496228
0.499028
0.501831
0.504636
0.507443
0.510253
0.513065
0.515879
0.518695
0.521514
0.524336
0.527159
0.529985
0.532814
0.535644
0.538477
0.541313
0.544151
0.546991
0.549833
0.552678
0.555525
0.558375
0.561227
0.564081
0.566937
0.569796
0.572658
0.575522
0.578388
0.581256
0.584127
0.587
0.589876
0.592754
0.595634
0.598517
0.601402
0.60429
0.60718
0.610072
0.612967
0.615864
0.618764
0.621666
0.62457
0.627477
0.630386
0.633298
0.636212
0.639128
0.642047
0.644969
0.647892
0.650818
0.653747
0.656678
0.659611
0.662547
0.665486
0.668426
0.67137
0.674315
0.677263
0.680214
0.683167
0.686122
0.68908
0.69204
0.695003
0.697968
0.700936
0.703906
0.706879
0.709854
0.712832
0.715812
0.718794
0.721779
0.724767
0.727756
0.730749
0.733744
0.736741
0.739741
0.742743
0.745748
0.748756
0.751765
0.754778
0.757793
0.76081
0.76383
0.766852
0.769877
0.772904
0.775934
0.778966
0.782001
0.785039
0.788079
0.791121
0.794166
0.797214
0.800264
0.803316
0.806371
0.809429
0.812489
0.815552
0.818617
0.821685
0.824755
0.827828
0.830903
0.833981
0.837062
0.840145
0.843231
0.846319
0.84941
0.852503
0.855599
0.858697
0.861798
0.864902
0.868008
0.871117
0.874228
0.877342
0.880459
0.883578
0.886699
0.889824
0.892951
0.89608
0.899212
0.902347
0.905484
0.908624
0.911766
0.914911
0.918059
0.921209
0.924362
0.927518
0.930676
0.933837
0.937
0.940166
0.943335
0.946506
0.94968
0.952856
0.956035
0.959217
0.962402
0.965589
0.968778
0.971971
0.975166
0.978363
0.981564
0.984767
0.987972
0.991181
0.994392
0.997605
1.00082
1.00404
1.00726
1.01049
1.01371
1.01694
1.02018
1.02341
1.02665
1.02989
1.03313
1.03638
1.03963
1.04288
1.04613
1.04939
1.05265
1.05591
1.05917
1.06244
1.06571
1.06898
1.07226
1.07554
1.07882
1.0821
1.08539
1.08868
1.09197
1.09526
1.09856
1.10186
1.10516
1.10847
1.11178
1.11509
1.1184
1.12172
1.12504
1.12836
1.13168
1.13501
1.13834
1.14167
1.14501
1.14835
1.15169
1.15503
1.15838
1.16173
1.16508
1.16844
1.1718
1.17516
1.17852
1.18189
1.18526
1.18863
1.192
1.19538
)
;

boundaryField
{
    bottom
    {
        type            calculated;
        value           uniform 0.299268;
    }
    top
    {
        type            calculated;
        value           uniform 1.19707;
    }
    sidesX
    {
        type            empty;
    }
    sidesY
    {
        type            empty;
    }
}


// ************************************************************************* //
