/*--------------------------------*- C++ -*----------------------------------*\
| =========                 |                                                 |
| \\      /  F ield         | OpenFOAM: The Open Source CFD Toolbox           |
|  \\    /   O peration     | Version:  v2012                                 |
|   \\  /    A nd           | Website:  www.openfoam.com                      |
|    \\/     M anipulation  |                                                 |
\*---------------------------------------------------------------------------*/
FoamFile
{
    version     2.0;
    format      ascii;
    class       volVectorField;
    location    "0.9";
    object      U_ver;
}
// * * * * * * * * * * * * * * * * * * * * * * * * * * * * * * * * * * * * * //

dimensions      [0 1 -1 0 0 0 0];


internalField   nonuniform List<vector> 
300
(
(0 0 4.37595e-06)
(0 0 4.37184e-06)
(0 0 4.36773e-06)
(0 0 4.36363e-06)
(0 0 4.35954e-06)
(0 0 4.35546e-06)
(0 0 4.35138e-06)
(0 0 4.34731e-06)
(0 0 4.34325e-06)
(0 0 4.3392e-06)
(0 0 4.33515e-06)
(0 0 4.33112e-06)
(0 0 4.32709e-06)
(0 0 4.32306e-06)
(0 0 4.31905e-06)
(0 0 4.31504e-06)
(0 0 4.31104e-06)
(0 0 4.30705e-06)
(0 0 4.30306e-06)
(0 0 4.29908e-06)
(0 0 4.29511e-06)
(0 0 4.29115e-06)
(0 0 4.28719e-06)
(0 0 4.28324e-06)
(0 0 4.2793e-06)
(0 0 4.27537e-06)
(0 0 4.27144e-06)
(0 0 4.26752e-06)
(0 0 4.26361e-06)
(0 0 4.2597e-06)
(0 0 4.2558e-06)
(0 0 4.25191e-06)
(0 0 4.24803e-06)
(0 0 4.24415e-06)
(0 0 4.24028e-06)
(0 0 4.23641e-06)
(0 0 4.23256e-06)
(0 0 4.22871e-06)
(0 0 4.22487e-06)
(0 0 4.22103e-06)
(0 0 4.2172e-06)
(0 0 4.21338e-06)
(0 0 4.20957e-06)
(0 0 4.20576e-06)
(0 0 4.20196e-06)
(0 0 4.19817e-06)
(0 0 4.19438e-06)
(0 0 4.1906e-06)
(0 0 4.18683e-06)
(0 0 4.18306e-06)
(0 0 4.1793e-06)
(0 0 4.17555e-06)
(0 0 4.1718e-06)
(0 0 4.16806e-06)
(0 0 4.16433e-06)
(0 0 4.1606e-06)
(0 0 4.15688e-06)
(0 0 4.15317e-06)
(0 0 4.14947e-06)
(0 0 4.14577e-06)
(0 0 4.14207e-06)
(0 0 4.13839e-06)
(0 0 4.13471e-06)
(0 0 4.13103e-06)
(0 0 4.12737e-06)
(0 0 4.12371e-06)
(0 0 4.12005e-06)
(0 0 4.11641e-06)
(0 0 4.11276e-06)
(0 0 4.10913e-06)
(0 0 4.1055e-06)
(0 0 4.10188e-06)
(0 0 4.09827e-06)
(0 0 4.09466e-06)
(0 0 4.09105e-06)
(0 0 4.08746e-06)
(0 0 4.08387e-06)
(0 0 4.08029e-06)
(0 0 4.07671e-06)
(0 0 4.07314e-06)
(0 0 4.06957e-06)
(0 0 4.06601e-06)
(0 0 4.06246e-06)
(0 0 4.05892e-06)
(0 0 4.05538e-06)
(0 0 4.05184e-06)
(0 0 4.04831e-06)
(0 0 4.04479e-06)
(0 0 4.04128e-06)
(0 0 4.03777e-06)
(0 0 4.03427e-06)
(0 0 4.03077e-06)
(0 0 4.02728e-06)
(0 0 4.02379e-06)
(0 0 4.02031e-06)
(0 0 4.01684e-06)
(0 0 4.01337e-06)
(0 0 4.00991e-06)
(0 0 4.00646e-06)
(0 0 4.00301e-06)
(0 0 3.99957e-06)
(0 0 3.99613e-06)
(0 0 3.9927e-06)
(0 0 3.98927e-06)
(0 0 3.98585e-06)
(0 0 3.98244e-06)
(0 0 3.97903e-06)
(0 0 3.97563e-06)
(0 0 3.97223e-06)
(0 0 3.96884e-06)
(0 0 3.96546e-06)
(0 0 3.96208e-06)
(0 0 3.95871e-06)
(0 0 3.95534e-06)
(0 0 3.95198e-06)
(0 0 3.94862e-06)
(0 0 3.94527e-06)
(0 0 3.94193e-06)
(0 0 3.93859e-06)
(0 0 3.93525e-06)
(0 0 3.93193e-06)
(0 0 3.92861e-06)
(0 0 3.92529e-06)
(0 0 3.92198e-06)
(0 0 3.91867e-06)
(0 0 3.91537e-06)
(0 0 3.91208e-06)
(0 0 3.90879e-06)
(0 0 3.90551e-06)
(0 0 3.90223e-06)
(0 0 3.89896e-06)
(0 0 3.89569e-06)
(0 0 3.89243e-06)
(0 0 3.88918e-06)
(0 0 3.88593e-06)
(0 0 3.88268e-06)
(0 0 3.87944e-06)
(0 0 3.87621e-06)
(0 0 3.87298e-06)
(0 0 3.86976e-06)
(0 0 3.86654e-06)
(0 0 3.86333e-06)
(0 0 3.86012e-06)
(0 0 3.85692e-06)
(0 0 3.85372e-06)
(0 0 3.85053e-06)
(0 0 3.84734e-06)
(0 0 3.84416e-06)
(0 0 3.84099e-06)
(0 0 3.83782e-06)
(0 0 3.83465e-06)
(0 0 3.83149e-06)
(0 0 3.82834e-06)
(0 0 3.82519e-06)
(0 0 3.82204e-06)
(0 0 3.81891e-06)
(0 0 3.81577e-06)
(0 0 3.81264e-06)
(0 0 3.80952e-06)
(0 0 3.8064e-06)
(0 0 3.80329e-06)
(0 0 3.80018e-06)
(0 0 3.79708e-06)
(0 0 3.79398e-06)
(0 0 3.79089e-06)
(0 0 3.7878e-06)
(0 0 3.78471e-06)
(0 0 3.78164e-06)
(0 0 3.77856e-06)
(0 0 3.7755e-06)
(0 0 3.77243e-06)
(0 0 3.76938e-06)
(0 0 3.76632e-06)
(0 0 3.76327e-06)
(0 0 3.76023e-06)
(0 0 3.75719e-06)
(0 0 3.75416e-06)
(0 0 3.75113e-06)
(0 0 3.74811e-06)
(0 0 3.74509e-06)
(0 0 3.74207e-06)
(0 0 3.73907e-06)
(0 0 3.73606e-06)
(0 0 3.73306e-06)
(0 0 3.73007e-06)
(0 0 3.72708e-06)
(0 0 3.72409e-06)
(0 0 3.72111e-06)
(0 0 3.71814e-06)
(0 0 3.71517e-06)
(0 0 3.7122e-06)
(0 0 3.70924e-06)
(0 0 3.70628e-06)
(0 0 3.70333e-06)
(0 0 3.70038e-06)
(0 0 3.69744e-06)
(0 0 3.6945e-06)
(0 0 3.69157e-06)
(0 0 3.68864e-06)
(0 0 3.68572e-06)
(0 0 3.6828e-06)
(0 0 3.67989e-06)
(0 0 3.67698e-06)
(0 0 3.67407e-06)
(0 0 3.67117e-06)
(0 0 3.66827e-06)
(0 0 3.66538e-06)
(0 0 3.6625e-06)
(0 0 3.65961e-06)
(0 0 3.65673e-06)
(0 0 3.65386e-06)
(0 0 3.65099e-06)
(0 0 3.64813e-06)
(0 0 3.64527e-06)
(0 0 3.64241e-06)
(0 0 3.63956e-06)
(0 0 3.63672e-06)
(0 0 3.63387e-06)
(0 0 3.63104e-06)
(0 0 3.6282e-06)
(0 0 3.62537e-06)
(0 0 3.62255e-06)
(0 0 3.61973e-06)
(0 0 3.61691e-06)
(0 0 3.6141e-06)
(0 0 3.6113e-06)
(0 0 3.60849e-06)
(0 0 3.6057e-06)
(0 0 3.6029e-06)
(0 0 3.60011e-06)
(0 0 3.59733e-06)
(0 0 3.59455e-06)
(0 0 3.59177e-06)
(0 0 3.589e-06)
(0 0 3.58623e-06)
(0 0 3.58347e-06)
(0 0 3.58071e-06)
(0 0 3.57795e-06)
(0 0 3.5752e-06)
(0 0 3.57245e-06)
(0 0 3.56971e-06)
(0 0 3.56697e-06)
(0 0 3.56424e-06)
(0 0 3.56151e-06)
(0 0 3.55878e-06)
(0 0 3.55606e-06)
(0 0 3.55334e-06)
(0 0 3.55063e-06)
(0 0 3.54792e-06)
(0 0 3.54522e-06)
(0 0 3.54252e-06)
(0 0 3.53982e-06)
(0 0 3.53713e-06)
(0 0 3.53444e-06)
(0 0 3.53175e-06)
(0 0 3.52907e-06)
(0 0 3.5264e-06)
(0 0 3.52373e-06)
(0 0 3.52106e-06)
(0 0 3.51839e-06)
(0 0 3.51573e-06)
(0 0 3.51308e-06)
(0 0 3.51042e-06)
(0 0 3.50778e-06)
(0 0 3.50513e-06)
(0 0 3.50249e-06)
(0 0 3.49986e-06)
(0 0 3.49722e-06)
(0 0 3.4946e-06)
(0 0 3.49197e-06)
(0 0 3.48935e-06)
(0 0 3.48673e-06)
(0 0 3.48412e-06)
(0 0 3.48151e-06)
(0 0 3.47891e-06)
(0 0 3.47631e-06)
(0 0 3.47371e-06)
(0 0 3.47112e-06)
(0 0 3.46853e-06)
(0 0 3.46594e-06)
(0 0 3.46336e-06)
(0 0 3.46078e-06)
(0 0 3.45821e-06)
(0 0 3.45564e-06)
(0 0 3.45307e-06)
(0 0 3.45051e-06)
(0 0 3.44795e-06)
(0 0 3.4454e-06)
(0 0 3.44285e-06)
(0 0 3.4403e-06)
(0 0 3.43776e-06)
(0 0 3.43522e-06)
(0 0 3.43268e-06)
(0 0 3.43015e-06)
(0 0 3.42762e-06)
(0 0 3.4251e-06)
(0 0 3.42257e-06)
(0 0 3.42006e-06)
(0 0 3.41754e-06)
(0 0 3.41503e-06)
)
;

boundaryField
{
    bottom
    {
        type            calculated;
        value           uniform (0 0 3.41378e-06);
    }
    top
    {
        type            calculated;
        value           uniform (0 0 4.37801e-06);
    }
    sidesX
    {
        type            empty;
    }
    sidesY
    {
        type            empty;
    }
}


// ************************************************************************* //
