/*--------------------------------*- C++ -*----------------------------------*\
| =========                 |                                                 |
| \\      /  F ield         | OpenFOAM: The Open Source CFD Toolbox           |
|  \\    /   O peration     | Version:  v2012                                 |
|   \\  /    A nd           | Website:  www.openfoam.com                      |
|    \\/     M anipulation  |                                                 |
\*---------------------------------------------------------------------------*/
FoamFile
{
    version     2.0;
    format      ascii;
    class       volVectorField;
    location    "48";
    object      Nb;
}
// * * * * * * * * * * * * * * * * * * * * * * * * * * * * * * * * * * * * * //

dimensions      [1 -2 -1 0 0 0 0];


internalField   nonuniform List<vector> 
100
(
(-0 -0 1.82112e-19)
(-0 -0 1.52466e-20)
(-0 -0 -1.35525e-19)
(-0 -0 -1.34678e-19)
(-0 -0 1.18161e-19)
(-0 -0 -8.21622e-20)
(-0 -0 1.15196e-19)
(-0 -0 -1.82112e-19)
(-0 -0 -9.95264e-20)
(-0 -0 1.6983e-19)
(-0 -0 2.00747e-19)
(-0 -0 -4.22669e-19)
(-0 -0 4.52316e-19)
(-0 -0 -2.66815e-19)
(-0 -0 -8.63974e-20)
(-0 -0 2.17687e-19)
(-0 -0 2.5411e-19)
(-0 -0 -5.36172e-19)
(-0 -0 3.06626e-19)
(-0 -0 -1.66018e-19)
(-0 -0 1.36372e-19)
(-0 -0 -3.05779e-19)
(-0 -0 4.73491e-19)
(-0 -0 -3.64224e-20)
(-0 -0 -1.70254e-19)
(-0 -0 1.67713e-19)
(-0 -0 -1.70254e-19)
(-0 -0 1.36372e-19)
(-0 -0 -3.34578e-19)
(-0 -0 1.36372e-19)
(-0 -0 1.70254e-19)
(-0 -0 -3.05779e-19)
(-0 -0 1.99053e-19)
(-0 -0 9.91029e-20)
(-0 -0 -1.01644e-19)
(-0 -0 1.66018e-19)
(-0 -0 -3.72694e-19)
(-0 -0 4.35375e-19)
(-0 -0 -2.9985e-19)
(-0 -0 -3.55754e-20)
(-0 -0 2.72745e-19)
(-0 -0 -2.03288e-19)
(-0 -0 2.01594e-19)
(-0 -0 6.43745e-20)
(-0 -0 -1.999e-19)
(-0 -0 -6.94567e-20)
(-0 -0 -1.33831e-19)
(-0 -0 1.35525e-19)
(-0 -0 -1.32137e-19)
(-0 -0 1.30443e-19)
(-0 -0 1.35525e-19)
(-0 -0 -1.33831e-19)
(-0 -0 -1.35525e-19)
(-0 -0 0)
(-0 -0 1.33831e-19)
(-0 -0 -6.43745e-20)
(-0 -0 3.38813e-19)
(-0 -0 -2.71051e-19)
(-0 -0 7.11508e-20)
(-0 -0 6.43745e-20)
(-0 -0 6.09864e-20)
(-0 -0 3.38813e-21)
(-0 -0 3.38813e-21)
(-0 -0 -2.64274e-19)
(-0 -0 -3.38813e-21)
(-0 -0 2.64274e-19)
(-0 -0 -2.74439e-19)
(-0 -0 1.35525e-19)
(-0 -0 -6.77626e-21)
(-0 -0 1.32137e-19)
(-0 -0 -1.35525e-19)
(-0 -0 -3.38813e-21)
(-0 -0 0)
(-0 -0 3.38813e-21)
(-0 -0 -1.35525e-19)
(-0 -0 1.28749e-19)
(-0 -0 0)
(-0 -0 0)
(-0 -0 -6.77626e-21)
(-0 -0 -1.38913e-19)
(-0 -0 1.28749e-19)
(-0 -0 0)
(-0 -0 1.35525e-19)
(-0 -0 -2.71051e-19)
(-0 -0 0)
(-0 -0 1.35525e-19)
(-0 -0 -6.77626e-20)
(-0 -0 1.42302e-19)
(-0 -0 -2.03288e-19)
(-0 -0 1.28749e-19)
(-0 -0 0)
(-0 -0 0)
(-0 -0 -6.09864e-20)
(-0 -0 -1.96512e-19)
(-0 -0 3.38813e-19)
(-0 -0 1.28749e-19)
(-0 -0 3.38813e-20)
(-0 -0 1.35525e-19)
(-0 -0 -2.10064e-19)
(-0 -0 -1.55854e-19)
)
;

boundaryField
{
    bottom
    {
        type            calculated;
        value           uniform (-0 -0 2.5411e-21);
    }
    top
    {
        type            calculated;
        value           uniform (-0 -0 -3.11708e-19);
    }
    sidesX
    {
        type            empty;
    }
    sidesY
    {
        type            empty;
    }
}


// ************************************************************************* //
