/*--------------------------------*- C++ -*----------------------------------*\
| =========                 |                                                 |
| \\      /  F ield         | OpenFOAM: The Open Source CFD Toolbox           |
|  \\    /   O peration     | Version:  v2012                                 |
|   \\  /    A nd           | Website:  www.openfoam.com                      |
|    \\/     M anipulation  |                                                 |
\*---------------------------------------------------------------------------*/
FoamFile
{
    version     2.0;
    format      ascii;
    class       volScalarField;
    location    "48";
    object      rho_b;
}
// * * * * * * * * * * * * * * * * * * * * * * * * * * * * * * * * * * * * * //

dimensions      [1 -3 0 0 0 0 0];


internalField   nonuniform List<scalar> 
400
(
0.593571
0.596806
0.600034
0.603255
0.606469
0.609676
0.612876
0.616069
0.619254
0.622432
0.625602
0.628764
0.631918
0.635065
0.638203
0.641333
0.644455
0.647569
0.650674
0.653771
0.656859
0.659939
0.66301
0.666071
0.669124
0.672168
0.675203
0.678229
0.681246
0.684253
0.687251
0.690239
0.693218
0.696187
0.699147
0.702097
0.705037
0.707968
0.710889
0.713799
0.7167
0.71959
0.722471
0.725341
0.728201
0.731051
0.733891
0.73672
0.739539
0.742348
0.745146
0.747933
0.75071
0.753477
0.756233
0.758978
0.761712
0.764436
0.767149
0.769851
0.772543
0.775224
0.777893
0.780552
0.7832
0.785837
0.788464
0.791079
0.793683
0.796276
0.798858
0.801429
0.803989
0.806538
0.809076
0.811603
0.814119
0.816624
0.819117
0.8216
0.824071
0.826531
0.82898
0.831418
0.833845
0.83626
0.838665
0.841058
0.84344
0.845811
0.848171
0.850519
0.852857
0.855183
0.857499
0.859803
0.862096
0.864378
0.866649
0.868909
0.871157
0.873395
0.875621
0.877837
0.880041
0.882235
0.884417
0.886589
0.888749
0.890899
0.893038
0.895165
0.897282
0.899388
0.901483
0.903567
0.905641
0.907703
0.909755
0.911796
0.913827
0.915846
0.917855
0.919853
0.921841
0.923818
0.925784
0.92774
0.929685
0.93162
0.933544
0.935458
0.937361
0.939254
0.941137
0.943009
0.944871
0.946722
0.948564
0.950395
0.952216
0.954026
0.955827
0.957618
0.959398
0.961168
0.962929
0.964679
0.966419
0.96815
0.969871
0.971581
0.973282
0.974973
0.976655
0.978327
0.979989
0.981641
0.983284
0.984917
0.986541
0.988155
0.98976
0.991355
0.992941
0.994518
0.996085
0.997643
0.999192
1.00073
1.00226
1.00378
1.00529
1.0068
1.00829
1.00978
1.01125
1.01272
1.01418
1.01563
1.01707
1.0185
1.01992
1.02134
1.02274
1.02414
1.02553
1.02691
1.02828
1.02965
1.031
1.03235
1.03369
1.03502
1.03634
1.03765
1.03896
1.04025
1.04154
1.04282
1.0441
1.04536
1.04662
1.04787
1.04911
1.05034
1.05157
1.05278
1.05399
1.0552
1.05639
1.05758
1.05876
1.05993
1.0611
1.06225
1.0634
1.06454
1.06568
1.06681
1.06793
1.06904
1.07015
1.07125
1.07234
1.07342
1.0745
1.07557
1.07664
1.07769
1.07874
1.07979
1.08082
1.08185
1.08287
1.08389
1.0849
1.0859
1.0869
1.08789
1.08887
1.08985
1.09082
1.09178
1.09274
1.09369
1.09464
1.09558
1.09651
1.09744
1.09836
1.09927
1.10018
1.10108
1.10197
1.10286
1.10375
1.10463
1.1055
1.10637
1.10723
1.10808
1.10893
1.10977
1.11061
1.11144
1.11227
1.11309
1.1139
1.11471
1.11552
1.11632
1.11711
1.1179
1.11868
1.11946
1.12023
1.121
1.12176
1.12252
1.12327
1.12401
1.12475
1.12549
1.12622
1.12695
1.12767
1.12838
1.1291
1.1298
1.1305
1.1312
1.13189
1.13258
1.13326
1.13394
1.13461
1.13528
1.13594
1.1366
1.13726
1.13791
1.13855
1.13919
1.13983
1.14046
1.14109
1.14171
1.14233
1.14295
1.14356
1.14417
1.14477
1.14537
1.14596
1.14655
1.14714
1.14772
1.14829
1.14887
1.14944
1.15
1.15056
1.15112
1.15167
1.15222
1.15277
1.15331
1.15385
1.15439
1.15492
1.15544
1.15597
1.15649
1.157
1.15751
1.15802
1.15853
1.15903
1.15953
1.16002
1.16051
1.161
1.16149
1.16197
1.16244
1.16292
1.16339
1.16385
1.16432
1.16478
1.16524
1.16569
1.16614
1.16659
1.16703
1.16748
1.16791
1.16835
1.16878
1.16921
1.16964
1.17006
1.17048
1.1709
1.17131
1.17172
1.17213
1.17253
1.17294
1.17333
1.17373
1.17413
1.17452
1.1749
1.17529
1.17567
1.17605
1.17643
1.1768
1.17717
1.17754
1.17791
1.17827
1.17863
1.17899
1.17935
1.1797
1.18005
1.1804
1.18075
1.18109
1.18143
1.18177
1.18211
1.18244
1.18277
1.1831
1.18343
1.18375
)
;

boundaryField
{
    bottom
    {
        type            calculated;
        value           uniform 0.591956;
    }
    top
    {
        type            calculated;
        value           uniform 1.18391;
    }
    sidesX
    {
        type            empty;
    }
    sidesY
    {
        type            empty;
    }
}


// ************************************************************************* //
