/*--------------------------------*- C++ -*----------------------------------*\
| =========                 |                                                 |
| \\      /  F ield         | OpenFOAM: The Open Source CFD Toolbox           |
|  \\    /   O peration     | Version:  v2012                                 |
|   \\  /    A nd           | Website:  www.openfoam.com                      |
|    \\/     M anipulation  |                                                 |
\*---------------------------------------------------------------------------*/
FoamFile
{
    version     2.0;
    format      ascii;
    class       volScalarField;
    location    "48";
    object      wa;
}
// * * * * * * * * * * * * * * * * * * * * * * * * * * * * * * * * * * * * * //

dimensions      [0 0 0 0 0 0 0];


internalField   nonuniform List<scalar> 
400
(
0.498636
0.495904
0.493177
0.490456
0.487741
0.485032
0.482329
0.479633
0.476942
0.474258
0.471581
0.46891
0.466246
0.463588
0.460937
0.458293
0.455656
0.453026
0.450403
0.447787
0.445179
0.442578
0.439984
0.437398
0.434819
0.432248
0.429685
0.427129
0.424581
0.422041
0.419509
0.416984
0.414468
0.41196
0.40946
0.406968
0.404485
0.40201
0.399543
0.397084
0.394634
0.392193
0.38976
0.387335
0.384919
0.382512
0.380113
0.377724
0.375343
0.37297
0.370607
0.368253
0.365907
0.36357
0.361242
0.358924
0.356614
0.354313
0.352022
0.349739
0.347466
0.345202
0.342947
0.340701
0.338464
0.336237
0.334018
0.33181
0.32961
0.32742
0.325239
0.323067
0.320904
0.318751
0.316608
0.314473
0.312348
0.310233
0.308127
0.30603
0.303942
0.301864
0.299796
0.297737
0.295687
0.293647
0.291616
0.289594
0.287582
0.28558
0.283586
0.281602
0.279628
0.277663
0.275707
0.273761
0.271824
0.269897
0.267979
0.26607
0.264171
0.262281
0.2604
0.258529
0.256667
0.254814
0.25297
0.251136
0.249311
0.247496
0.245689
0.243892
0.242104
0.240325
0.238556
0.236795
0.235044
0.233302
0.231569
0.229845
0.22813
0.226424
0.224727
0.223039
0.22136
0.219691
0.21803
0.216378
0.214735
0.2131
0.211475
0.209859
0.208251
0.206652
0.205062
0.203481
0.201908
0.200344
0.198789
0.197242
0.195704
0.194174
0.192654
0.191141
0.189637
0.188142
0.186655
0.185177
0.183707
0.182245
0.180792
0.179347
0.17791
0.176481
0.175061
0.173649
0.172245
0.17085
0.169462
0.168082
0.166711
0.165347
0.163992
0.162645
0.161305
0.159973
0.158649
0.157334
0.156025
0.154725
0.153432
0.152147
0.15087
0.149601
0.148339
0.147084
0.145838
0.144598
0.143366
0.142142
0.140925
0.139716
0.138514
0.137319
0.136131
0.134951
0.133778
0.132612
0.131453
0.130302
0.129157
0.12802
0.12689
0.125767
0.12465
0.123541
0.122438
0.121343
0.120254
0.119172
0.118097
0.117028
0.115967
0.114912
0.113863
0.112822
0.111786
0.110758
0.109736
0.10872
0.107711
0.106708
0.105712
0.104722
0.103738
0.10276
0.101789
0.100824
0.0998656
0.098913
0.0979665
0.0970261
0.0960919
0.0951636
0.0942413
0.093325
0.0924147
0.0915102
0.0906116
0.0897189
0.088832
0.0879508
0.0870754
0.0862058
0.0853418
0.0844834
0.0836307
0.0827836
0.081942
0.081106
0.0802755
0.0794504
0.0786308
0.0778166
0.0770078
0.0762043
0.0754061
0.0746133
0.0738256
0.0730433
0.0722661
0.071494
0.0707272
0.0699654
0.0692087
0.0684571
0.0677105
0.0669688
0.0662322
0.0655004
0.0647736
0.0640517
0.0633346
0.0626223
0.0619149
0.0612121
0.0605142
0.0598209
0.0591323
0.0584484
0.057769
0.0570943
0.0564242
0.0557586
0.0550975
0.0544409
0.0537887
0.053141
0.0524977
0.0518588
0.0512242
0.050594
0.049968
0.0493463
0.0487289
0.0481157
0.0475067
0.0469019
0.0463012
0.0457046
0.0451121
0.0445237
0.0439394
0.043359
0.0427827
0.0422103
0.0416418
0.0410773
0.0405166
0.0399599
0.039407
0.0388579
0.0383126
0.037771
0.0372333
0.0366992
0.0361688
0.0356422
0.0351191
0.0345998
0.034084
0.0335718
0.0330632
0.0325581
0.0320565
0.0315584
0.0310638
0.0305726
0.0300849
0.0296006
0.0291196
0.0286421
0.0281678
0.0276969
0.0272293
0.0267649
0.0263038
0.025846
0.0253913
0.0249399
0.0244916
0.0240464
0.0236044
0.0231655
0.0227297
0.022297
0.0218673
0.0214406
0.0210169
0.0205963
0.0201785
0.0197638
0.019352
0.018943
0.018537
0.0181338
0.0177335
0.0173361
0.0169414
0.0165495
0.0161604
0.0157741
0.0153905
0.0150096
0.0146315
0.014256
0.0138832
0.013513
0.0131455
0.0127806
0.0124182
0.0120585
0.0117013
0.0113467
0.0109945
0.0106449
0.0102978
0.0099532
0.00961102
0.00927129
0.00893398
0.00859908
0.00826658
0.00793645
0.00760868
0.00728326
0.00696017
0.00663938
0.0063209
0.0060047
0.00569076
0.00537907
0.00506962
0.00476239
0.00445736
0.00415452
0.00385386
0.00355535
0.00325899
0.00296476
0.00267264
0.00238262
0.00209469
0.00180883
0.00152503
0.00124327
0.000963543
0.000685828
0.000410114
0.000136387
)
;

boundaryField
{
    bottom
    {
        type            calculated;
        value           uniform 0.5;
    }
    top
    {
        type            calculated;
        value           uniform 0;
    }
    sidesX
    {
        type            empty;
    }
    sidesY
    {
        type            empty;
    }
}


// ************************************************************************* //
