/*--------------------------------*- C++ -*----------------------------------*\
| =========                 |                                                 |
| \\      /  F ield         | OpenFOAM: The Open Source CFD Toolbox           |
|  \\    /   O peration     | Version:  v2012                                 |
|   \\  /    A nd           | Website:  www.openfoam.com                      |
|    \\/     M anipulation  |                                                 |
\*---------------------------------------------------------------------------*/
FoamFile
{
    version     2.0;
    format      ascii;
    class       volVectorField;
    location    "48.5";
    object      ja;
}
// * * * * * * * * * * * * * * * * * * * * * * * * * * * * * * * * * * * * * //

dimensions      [1 -2 -1 0 0 0 0];


internalField   nonuniform List<vector> 
100
(
(-0 -0 6.38193e-06)
(-0 -0 6.42632e-06)
(-0 -0 6.47102e-06)
(-0 -0 6.51603e-06)
(-0 -0 6.56135e-06)
(-0 -0 6.60699e-06)
(-0 -0 6.65294e-06)
(-0 -0 6.69922e-06)
(-0 -0 6.74582e-06)
(-0 -0 6.79274e-06)
(-0 -0 6.83998e-06)
(-0 -0 6.88756e-06)
(-0 -0 6.93547e-06)
(-0 -0 6.98371e-06)
(-0 -0 7.03228e-06)
(-0 -0 7.0812e-06)
(-0 -0 7.13045e-06)
(-0 -0 7.18005e-06)
(-0 -0 7.22999e-06)
(-0 -0 7.28028e-06)
(-0 -0 7.33091e-06)
(-0 -0 7.38191e-06)
(-0 -0 7.43325e-06)
(-0 -0 7.48495e-06)
(-0 -0 7.53702e-06)
(-0 -0 7.58944e-06)
(-0 -0 7.64223e-06)
(-0 -0 7.69539e-06)
(-0 -0 7.74891e-06)
(-0 -0 7.80281e-06)
(-0 -0 7.85708e-06)
(-0 -0 7.91173e-06)
(-0 -0 7.96676e-06)
(-0 -0 8.02218e-06)
(-0 -0 8.07798e-06)
(-0 -0 8.13416e-06)
(-0 -0 8.19074e-06)
(-0 -0 8.24771e-06)
(-0 -0 8.30508e-06)
(-0 -0 8.36285e-06)
(-0 -0 8.42101e-06)
(-0 -0 8.47959e-06)
(-0 -0 8.53857e-06)
(-0 -0 8.59796e-06)
(-0 -0 8.65776e-06)
(-0 -0 8.71798e-06)
(-0 -0 8.77862e-06)
(-0 -0 8.83968e-06)
(-0 -0 8.90117e-06)
(-0 -0 8.96308e-06)
(-0 -0 9.02542e-06)
(-0 -0 9.0882e-06)
(-0 -0 9.15141e-06)
(-0 -0 9.21507e-06)
(-0 -0 9.27916e-06)
(-0 -0 9.3437e-06)
(-0 -0 9.4087e-06)
(-0 -0 9.47414e-06)
(-0 -0 9.54004e-06)
(-0 -0 9.60639e-06)
(-0 -0 9.67321e-06)
(-0 -0 9.74049e-06)
(-0 -0 9.80824e-06)
(-0 -0 9.87647e-06)
(-0 -0 9.94516e-06)
(-0 -0 1.00143e-05)
(-0 -0 1.0084e-05)
(-0 -0 1.01541e-05)
(-0 -0 1.02248e-05)
(-0 -0 1.02959e-05)
(-0 -0 1.03675e-05)
(-0 -0 1.04396e-05)
(-0 -0 1.05122e-05)
(-0 -0 1.05853e-05)
(-0 -0 1.0659e-05)
(-0 -0 1.07331e-05)
(-0 -0 1.08078e-05)
(-0 -0 1.08829e-05)
(-0 -0 1.09586e-05)
(-0 -0 1.10349e-05)
(-0 -0 1.11116e-05)
(-0 -0 1.11889e-05)
(-0 -0 1.12667e-05)
(-0 -0 1.13451e-05)
(-0 -0 1.1424e-05)
(-0 -0 1.15035e-05)
(-0 -0 1.15835e-05)
(-0 -0 1.1664e-05)
(-0 -0 1.17452e-05)
(-0 -0 1.18269e-05)
(-0 -0 1.19091e-05)
(-0 -0 1.1992e-05)
(-0 -0 1.20754e-05)
(-0 -0 1.21594e-05)
(-0 -0 1.22439e-05)
(-0 -0 1.23291e-05)
(-0 -0 1.24149e-05)
(-0 -0 1.25012e-05)
(-0 -0 1.25882e-05)
(-0 -0 1.26757e-05)
)
;

boundaryField
{
    bottom
    {
        type            calculated;
        value           uniform (-0 -0 6.35981e-06);
    }
    top
    {
        type            calculated;
        value           uniform (-0 -0 1.27197e-05);
    }
    sidesX
    {
        type            empty;
    }
    sidesY
    {
        type            empty;
    }
}


// ************************************************************************* //
