/*--------------------------------*- C++ -*----------------------------------*\
| =========                 |                                                 |
| \\      /  F ield         | OpenFOAM: The Open Source CFD Toolbox           |
|  \\    /   O peration     | Version:  v2012                                 |
|   \\  /    A nd           | Website:  www.openfoam.com                      |
|    \\/     M anipulation  |                                                 |
\*---------------------------------------------------------------------------*/
FoamFile
{
    version     2.0;
    format      ascii;
    class       volScalarField;
    location    "48.5";
    object      wa;
}
// * * * * * * * * * * * * * * * * * * * * * * * * * * * * * * * * * * * * * //

dimensions      [0 0 0 0 0 0 0];


internalField   nonuniform List<scalar> 
100
(
0.498267
0.494777
0.491263
0.487725
0.484162
0.480574
0.476961
0.473323
0.469659
0.465971
0.462256
0.458516
0.454749
0.450957
0.447138
0.443293
0.43942
0.435521
0.431595
0.427641
0.42366
0.419652
0.415615
0.41155
0.407457
0.403336
0.399186
0.395007
0.390799
0.386561
0.382295
0.377998
0.373672
0.369315
0.364928
0.360511
0.356063
0.351584
0.347074
0.342533
0.33796
0.333355
0.328718
0.324049
0.319347
0.314613
0.309846
0.305045
0.300211
0.295344
0.290443
0.285507
0.280538
0.275533
0.270494
0.26542
0.260311
0.255166
0.249985
0.244768
0.239515
0.234226
0.228899
0.223536
0.218135
0.212697
0.207221
0.201707
0.196154
0.190563
0.184933
0.179263
0.173555
0.167806
0.162018
0.156189
0.15032
0.14441
0.138459
0.132467
0.126432
0.120356
0.114238
0.108077
0.101873
0.0956262
0.0893357
0.0830016
0.0766233
0.0702007
0.0637335
0.0572212
0.0506636
0.0440605
0.0374114
0.030716
0.0239741
0.0171853
0.0103493
0.00346573
)
;

boundaryField
{
    bottom
    {
        type            calculated;
        value           uniform 0.5;
    }
    top
    {
        type            calculated;
        value           uniform 0;
    }
    sidesX
    {
        type            empty;
    }
    sidesY
    {
        type            empty;
    }
}


// ************************************************************************* //
