/*--------------------------------*- C++ -*----------------------------------*\
| =========                 |                                                 |
| \\      /  F ield         | OpenFOAM: The Open Source CFD Toolbox           |
|  \\    /   O peration     | Version:  v2012                                 |
|   \\  /    A nd           | Website:  www.openfoam.com                      |
|    \\/     M anipulation  |                                                 |
\*---------------------------------------------------------------------------*/
FoamFile
{
    version     2.0;
    format      ascii;
    class       volVectorField;
    location    "0.6";
    object      ja;
}
// * * * * * * * * * * * * * * * * * * * * * * * * * * * * * * * * * * * * * //

dimensions      [1 -2 -1 0 0 0 0];


internalField   nonuniform List<vector> 
100
(
(-0 -0 1.3916e-05)
(-0 -0 1.3916e-05)
(-0 -0 1.3916e-05)
(-0 -0 1.3916e-05)
(-0 -0 1.3916e-05)
(-0 -0 1.3916e-05)
(-0 -0 1.3916e-05)
(-0 -0 1.3916e-05)
(-0 -0 1.3916e-05)
(-0 -0 1.3916e-05)
(-0 -0 1.3916e-05)
(-0 -0 1.3916e-05)
(-0 -0 1.3916e-05)
(-0 -0 1.3916e-05)
(-0 -0 1.3916e-05)
(-0 -0 1.3916e-05)
(-0 -0 1.3916e-05)
(-0 -0 1.3916e-05)
(-0 -0 1.3916e-05)
(-0 -0 1.3916e-05)
(-0 -0 1.3916e-05)
(-0 -0 1.3916e-05)
(-0 -0 1.3916e-05)
(-0 -0 1.3916e-05)
(-0 -0 1.3916e-05)
(-0 -0 1.3916e-05)
(-0 -0 1.3916e-05)
(-0 -0 1.3916e-05)
(-0 -0 1.3916e-05)
(-0 -0 1.3916e-05)
(-0 -0 1.3916e-05)
(-0 -0 1.3916e-05)
(-0 -0 1.3916e-05)
(-0 -0 1.3916e-05)
(-0 -0 1.3916e-05)
(-0 -0 1.3916e-05)
(-0 -0 1.3916e-05)
(-0 -0 1.3916e-05)
(-0 -0 1.3916e-05)
(-0 -0 1.3916e-05)
(-0 -0 1.3916e-05)
(-0 -0 1.3916e-05)
(-0 -0 1.3916e-05)
(-0 -0 1.3916e-05)
(-0 -0 1.3916e-05)
(-0 -0 1.3916e-05)
(-0 -0 1.3916e-05)
(-0 -0 1.3916e-05)
(-0 -0 1.3916e-05)
(-0 -0 1.3916e-05)
(-0 -0 1.3916e-05)
(-0 -0 1.3916e-05)
(-0 -0 1.3916e-05)
(-0 -0 1.3916e-05)
(-0 -0 1.3916e-05)
(-0 -0 1.3916e-05)
(-0 -0 1.3916e-05)
(-0 -0 1.3916e-05)
(-0 -0 1.3916e-05)
(-0 -0 1.3916e-05)
(-0 -0 1.3916e-05)
(-0 -0 1.3916e-05)
(-0 -0 1.3916e-05)
(-0 -0 1.3916e-05)
(-0 -0 1.3916e-05)
(-0 -0 1.3916e-05)
(-0 -0 1.3916e-05)
(-0 -0 1.3916e-05)
(-0 -0 1.3916e-05)
(-0 -0 1.3916e-05)
(-0 -0 1.3916e-05)
(-0 -0 1.3916e-05)
(-0 -0 1.3916e-05)
(-0 -0 1.3916e-05)
(-0 -0 1.3916e-05)
(-0 -0 1.3916e-05)
(-0 -0 1.3916e-05)
(-0 -0 1.3916e-05)
(-0 -0 1.3916e-05)
(-0 -0 1.3916e-05)
(-0 -0 1.3916e-05)
(-0 -0 1.3916e-05)
(-0 -0 1.3916e-05)
(-0 -0 1.3916e-05)
(-0 -0 1.3916e-05)
(-0 -0 1.3916e-05)
(-0 -0 1.3916e-05)
(-0 -0 1.3916e-05)
(-0 -0 1.3916e-05)
(-0 -0 1.3916e-05)
(-0 -0 1.3916e-05)
(-0 -0 1.3916e-05)
(-0 -0 1.3916e-05)
(-0 -0 1.3916e-05)
(-0 -0 1.3916e-05)
(-0 -0 1.3916e-05)
(-0 -0 1.3916e-05)
(-0 -0 1.3916e-05)
(-0 -0 1.3916e-05)
(-0 -0 1.3916e-05)
)
;

boundaryField
{
    bottom
    {
        type            calculated;
        value           uniform (-0 -0 1.3916e-05);
    }
    top
    {
        type            calculated;
        value           uniform (-0 -0 1.3916e-05);
    }
    sidesX
    {
        type            empty;
    }
    sidesY
    {
        type            empty;
    }
}


// ************************************************************************* //
