/*--------------------------------*- C++ -*----------------------------------*\
| =========                 |                                                 |
| \\      /  F ield         | OpenFOAM: The Open Source CFD Toolbox           |
|  \\    /   O peration     | Version:  v2012                                 |
|   \\  /    A nd           | Website:  www.openfoam.com                      |
|    \\/     M anipulation  |                                                 |
\*---------------------------------------------------------------------------*/
FoamFile
{
    version     2.0;
    format      ascii;
    class       volVectorField;
    location    "0.6";
    object      Nb;
}
// * * * * * * * * * * * * * * * * * * * * * * * * * * * * * * * * * * * * * //

dimensions      [1 -2 -1 0 0 0 0];


internalField   nonuniform List<vector> 
100
(
(0 0 -1.20335e-05)
(0 0 -1.20601e-05)
(0 0 -1.20868e-05)
(0 0 -1.21136e-05)
(0 0 -1.21406e-05)
(0 0 -1.21676e-05)
(0 0 -1.21948e-05)
(0 0 -1.22221e-05)
(0 0 -1.22496e-05)
(0 0 -1.22771e-05)
(0 0 -1.23048e-05)
(0 0 -1.23326e-05)
(0 0 -1.23605e-05)
(0 0 -1.23886e-05)
(0 0 -1.24168e-05)
(0 0 -1.24451e-05)
(0 0 -1.24735e-05)
(0 0 -1.25021e-05)
(0 0 -1.25308e-05)
(0 0 -1.25596e-05)
(0 0 -1.25886e-05)
(0 0 -1.26177e-05)
(0 0 -1.2647e-05)
(0 0 -1.26763e-05)
(0 0 -1.27058e-05)
(0 0 -1.27355e-05)
(0 0 -1.27653e-05)
(0 0 -1.27952e-05)
(0 0 -1.28253e-05)
(0 0 -1.28555e-05)
(0 0 -1.28858e-05)
(0 0 -1.29163e-05)
(0 0 -1.2947e-05)
(0 0 -1.29778e-05)
(0 0 -1.30087e-05)
(0 0 -1.30398e-05)
(0 0 -1.3071e-05)
(0 0 -1.31024e-05)
(0 0 -1.31339e-05)
(0 0 -1.31656e-05)
(0 0 -1.31974e-05)
(0 0 -1.32294e-05)
(0 0 -1.32616e-05)
(0 0 -1.32939e-05)
(0 0 -1.33263e-05)
(0 0 -1.3359e-05)
(0 0 -1.33917e-05)
(0 0 -1.34247e-05)
(0 0 -1.34578e-05)
(0 0 -1.3491e-05)
(0 0 -1.35245e-05)
(0 0 -1.35581e-05)
(0 0 -1.35918e-05)
(0 0 -1.36258e-05)
(0 0 -1.36599e-05)
(0 0 -1.36941e-05)
(0 0 -1.37286e-05)
(0 0 -1.37632e-05)
(0 0 -1.3798e-05)
(0 0 -1.3833e-05)
(0 0 -1.38681e-05)
(0 0 -1.39035e-05)
(0 0 -1.3939e-05)
(0 0 -1.39747e-05)
(0 0 -1.40105e-05)
(0 0 -1.40466e-05)
(0 0 -1.40828e-05)
(0 0 -1.41193e-05)
(0 0 -1.41559e-05)
(0 0 -1.41927e-05)
(0 0 -1.42297e-05)
(0 0 -1.42669e-05)
(0 0 -1.43043e-05)
(0 0 -1.43419e-05)
(0 0 -1.43797e-05)
(0 0 -1.44177e-05)
(0 0 -1.44559e-05)
(0 0 -1.44942e-05)
(0 0 -1.45328e-05)
(0 0 -1.45716e-05)
(0 0 -1.46107e-05)
(0 0 -1.46499e-05)
(0 0 -1.46893e-05)
(0 0 -1.47289e-05)
(0 0 -1.47688e-05)
(0 0 -1.48089e-05)
(0 0 -1.48492e-05)
(0 0 -1.48897e-05)
(0 0 -1.49304e-05)
(0 0 -1.49714e-05)
(0 0 -1.50125e-05)
(0 0 -1.5054e-05)
(0 0 -1.50956e-05)
(0 0 -1.51375e-05)
(0 0 -1.51796e-05)
(0 0 -1.52219e-05)
(0 0 -1.52645e-05)
(0 0 -1.53073e-05)
(0 0 -1.53503e-05)
(0 0 -1.53936e-05)
)
;

boundaryField
{
    bottom
    {
        type            calculated;
        value           uniform (0 0 -1.20202e-05);
    }
    top
    {
        type            calculated;
        value           uniform (0 0 -1.54154e-05);
    }
    sidesX
    {
        type            empty;
    }
    sidesY
    {
        type            empty;
    }
}


// ************************************************************************* //
