/*--------------------------------*- C++ -*----------------------------------*\
| =========                 |                                                 |
| \\      /  F ield         | OpenFOAM: The Open Source CFD Toolbox           |
|  \\    /   O peration     | Version:  v2012                                 |
|   \\  /    A nd           | Website:  www.openfoam.com                      |
|    \\/     M anipulation  |                                                 |
\*---------------------------------------------------------------------------*/
FoamFile
{
    version     2.0;
    format      ascii;
    class       volScalarField;
    location    "48";
    object      coeff2;
}
// * * * * * * * * * * * * * * * * * * * * * * * * * * * * * * * * * * * * * //

dimensions      [0 2 -1 0 0 0 0];


internalField   nonuniform List<scalar> 
100
(
-2.13108e-05
-2.12579e-05
-2.12051e-05
-2.11524e-05
-2.10998e-05
-2.10474e-05
-2.09951e-05
-2.09429e-05
-2.08909e-05
-2.0839e-05
-2.07872e-05
-2.07356e-05
-2.06841e-05
-2.06327e-05
-2.05814e-05
-2.05303e-05
-2.04792e-05
-2.04284e-05
-2.03776e-05
-2.0327e-05
-2.02765e-05
-2.02261e-05
-2.01758e-05
-2.01257e-05
-2.00757e-05
-2.00258e-05
-1.99761e-05
-1.99264e-05
-1.98769e-05
-1.98275e-05
-1.97783e-05
-1.97291e-05
-1.96801e-05
-1.96312e-05
-1.95824e-05
-1.95338e-05
-1.94852e-05
-1.94368e-05
-1.93885e-05
-1.93404e-05
-1.92923e-05
-1.92444e-05
-1.91966e-05
-1.91489e-05
-1.91013e-05
-1.90538e-05
-1.90065e-05
-1.89593e-05
-1.89121e-05
-1.88652e-05
-1.88183e-05
-1.87715e-05
-1.87249e-05
-1.86784e-05
-1.86319e-05
-1.85857e-05
-1.85395e-05
-1.84934e-05
-1.84475e-05
-1.84016e-05
-1.83559e-05
-1.83103e-05
-1.82648e-05
-1.82194e-05
-1.81742e-05
-1.8129e-05
-1.8084e-05
-1.8039e-05
-1.79942e-05
-1.79495e-05
-1.79049e-05
-1.78604e-05
-1.7816e-05
-1.77718e-05
-1.77276e-05
-1.76836e-05
-1.76396e-05
-1.75958e-05
-1.75521e-05
-1.75085e-05
-1.7465e-05
-1.74216e-05
-1.73783e-05
-1.73351e-05
-1.7292e-05
-1.72491e-05
-1.72062e-05
-1.71635e-05
-1.71208e-05
-1.70783e-05
-1.70358e-05
-1.69935e-05
-1.69513e-05
-1.69092e-05
-1.68672e-05
-1.68252e-05
-1.67834e-05
-1.67417e-05
-1.67001e-05
-1.66586e-05
)
;

boundaryField
{
    bottom
    {
        type            calculated;
        value           uniform -2.13373e-05;
    }
    top
    {
        type            calculated;
        value           uniform -1.66379e-05;
    }
    sidesX
    {
        type            empty;
    }
    sidesY
    {
        type            empty;
    }
}


// ************************************************************************* //
