/*--------------------------------*- C++ -*----------------------------------*\
| =========                 |                                                 |
| \\      /  F ield         | OpenFOAM: The Open Source CFD Toolbox           |
|  \\    /   O peration     | Version:  v2012                                 |
|   \\  /    A nd           | Website:  www.openfoam.com                      |
|    \\/     M anipulation  |                                                 |
\*---------------------------------------------------------------------------*/
FoamFile
{
    version     2.0;
    format      ascii;
    class       volVectorField;
    location    "49.5";
    object      Nb;
}
// * * * * * * * * * * * * * * * * * * * * * * * * * * * * * * * * * * * * * //

dimensions      [1 -2 -1 0 0 0 0];


internalField   nonuniform List<vector> 
100
(
(0 0 -4.13555e-11)
(0 0 -4.18887e-11)
(0 0 -4.24256e-11)
(0 0 -4.29662e-11)
(0 0 -4.35106e-11)
(0 0 -4.40588e-11)
(0 0 -4.46108e-11)
(0 0 -4.51666e-11)
(0 0 -4.57263e-11)
(0 0 -4.62899e-11)
(0 0 -4.68574e-11)
(0 0 -4.74288e-11)
(0 0 -4.80043e-11)
(0 0 -4.85837e-11)
(0 0 -4.91672e-11)
(0 0 -4.97547e-11)
(0 0 -5.03463e-11)
(0 0 -5.0942e-11)
(0 0 -5.15419e-11)
(0 0 -5.21459e-11)
(0 0 -5.27541e-11)
(0 0 -5.33666e-11)
(0 0 -5.39833e-11)
(0 0 -5.46043e-11)
(0 0 -5.52297e-11)
(0 0 -5.58594e-11)
(0 0 -5.64934e-11)
(0 0 -5.71319e-11)
(0 0 -5.77748e-11)
(0 0 -5.84222e-11)
(0 0 -5.90741e-11)
(0 0 -5.97305e-11)
(0 0 -6.03915e-11)
(0 0 -6.10571e-11)
(0 0 -6.17273e-11)
(0 0 -6.24022e-11)
(0 0 -6.30818e-11)
(0 0 -6.37661e-11)
(0 0 -6.44551e-11)
(0 0 -6.5149e-11)
(0 0 -6.58477e-11)
(0 0 -6.65512e-11)
(0 0 -6.72596e-11)
(0 0 -6.7973e-11)
(0 0 -6.86913e-11)
(0 0 -6.94146e-11)
(0 0 -7.0143e-11)
(0 0 -7.08764e-11)
(0 0 -7.16149e-11)
(0 0 -7.23586e-11)
(0 0 -7.31074e-11)
(0 0 -7.38614e-11)
(0 0 -7.46207e-11)
(0 0 -7.53853e-11)
(0 0 -7.61552e-11)
(0 0 -7.69304e-11)
(0 0 -7.7711e-11)
(0 0 -7.84971e-11)
(0 0 -7.92886e-11)
(0 0 -8.00856e-11)
(0 0 -8.08882e-11)
(0 0 -8.16964e-11)
(0 0 -8.25101e-11)
(0 0 -8.33296e-11)
(0 0 -8.41547e-11)
(0 0 -8.49856e-11)
(0 0 -8.58222e-11)
(0 0 -8.66647e-11)
(0 0 -8.7513e-11)
(0 0 -8.83673e-11)
(0 0 -8.92275e-11)
(0 0 -9.00936e-11)
(0 0 -9.09658e-11)
(0 0 -9.18441e-11)
(0 0 -9.27284e-11)
(0 0 -9.36189e-11)
(0 0 -9.45156e-11)
(0 0 -9.54186e-11)
(0 0 -9.63278e-11)
(0 0 -9.72433e-11)
(0 0 -9.81653e-11)
(0 0 -9.90936e-11)
(0 0 -1.00028e-10)
(0 0 -1.0097e-10)
(0 0 -1.01917e-10)
(0 0 -1.02872e-10)
(0 0 -1.03833e-10)
(0 0 -1.04801e-10)
(0 0 -1.05775e-10)
(0 0 -1.06756e-10)
(0 0 -1.07745e-10)
(0 0 -1.0874e-10)
(0 0 -1.09741e-10)
(0 0 -1.1075e-10)
(0 0 -1.11766e-10)
(0 0 -1.12789e-10)
(0 0 -1.13819e-10)
(0 0 -1.14856e-10)
(0 0 -1.15901e-10)
(0 0 -1.16952e-10)
)
;

boundaryField
{
    bottom
    {
        type            calculated;
        value           uniform (0 0 3.52999e-11);
    }
    top
    {
        type            calculated;
        value           uniform (0 0 3.52999e-11);
    }
    sidesX
    {
        type            empty;
    }
    sidesY
    {
        type            empty;
    }
}


// ************************************************************************* //
