/*--------------------------------*- C++ -*----------------------------------*\
| =========                 |                                                 |
| \\      /  F ield         | OpenFOAM: The Open Source CFD Toolbox           |
|  \\    /   O peration     | Version:  v2012                                 |
|   \\  /    A nd           | Website:  www.openfoam.com                      |
|    \\/     M anipulation  |                                                 |
\*---------------------------------------------------------------------------*/
FoamFile
{
    version     2.0;
    format      ascii;
    class       volVectorField;
    location    "48.5";
    object      Nb;
}
// * * * * * * * * * * * * * * * * * * * * * * * * * * * * * * * * * * * * * //

dimensions      [1 -2 -1 0 0 0 0];


internalField   nonuniform List<vector> 
3200
(
(-0 -0 -8.55503e-19)
(-0 -0 3.44742e-19)
(-0 -0 1.8783e-18)
(-0 -0 -3.07685e-18)
(-0 -0 4.10684e-18)
(-0 -0 -4.45455e-18)
(-0 -0 1.54372e-18)
(-0 -0 8.59315e-19)
(-0 -0 -1.27055e-21)
(-0 -0 -2.5411e-21)
(-0 -0 -2.40939e-18)
(-0 -0 1.20702e-18)
(-0 -0 -8.63974e-19)
(-0 -0 2.41447e-18)
(-0 -0 -3.43472e-19)
(-0 -0 -1.73176e-18)
(-0 -0 2.77107e-18)
(-0 -0 -2.77319e-18)
(-0 -0 1.04227e-18)
(-0 -0 -1.38744e-18)
(-0 -0 1.21846e-18)
(-0 -0 -1.39083e-18)
(-0 -0 1.56659e-18)
(-0 -0 -1.73642e-19)
(-0 -0 -3.47284e-19)
(-0 -0 8.73291e-19)
(-0 -0 -2.44581e-18)
(-0 -0 2.45047e-18)
(-0 -0 -7.01767e-19)
(-0 -0 -2.2781e-18)
(-0 -0 2.45597e-18)
(-0 -0 8.80067e-19)
(-0 -0 -3.68968e-18)
(-0 -0 2.81342e-18)
(-0 -0 3.50672e-19)
(-0 -0 2.11377e-18)
(-0 -0 -5.26854e-19)
(-0 -0 -2.29631e-18)
(-0 -0 8.85996e-19)
(-0 -0 -1.76733e-18)
(-0 -0 -1.69407e-21)
(-0 -0 -7.07696e-19)
(-0 -0 3.57448e-19)
(-0 -0 1.60174e-18)
(-0 -0 -1.95453e-18)
(-0 -0 1.06769e-18)
(-0 -0 1.42471e-18)
(-0 -0 1.77453e-19)
(-0 -0 -7.16166e-19)
(-0 -0 -1.25107e-18)
(-0 -0 1.78893e-18)
(-0 -0 -1.24937e-18)
(-0 -0 -5.3956e-19)
(-0 -0 3.22423e-18)
(-0 -0 -1.07827e-18)
(-0 -0 -1.7974e-18)
(-0 -0 9.01243e-19)
(-0 -0 -1.44038e-18)
(-0 -0 -7.18707e-19)
(-0 -0 2.34543e-18)
(-0 -0 1.80418e-18)
(-0 -0 -3.25049e-18)
(-0 -0 1.62461e-18)
(-0 -0 -3.59142e-19)
(-0 -0 1.08759e-18)
(-0 -0 1.26758e-18)
(-0 -0 -1.81392e-18)
(-0 -0 -1.4552e-18)
(-0 -0 1.08928e-18)
(-0 -0 -1.63943e-18)
(-0 -0 -1.09225e-18)
(-0 -0 5.45066e-19)
(-0 -0 2.92057e-18)
(-0 -0 1.27733e-18)
(-0 -0 -3.10649e-18)
(-0 -0 9.16913e-19)
(-0 -0 5.50995e-19)
(-0 -0 5.50995e-19)
(-0 -0 -7.36072e-19)
(-0 -0 1.65002e-18)
(-0 -0 -1.83594e-18)
(-0 -0 1.47214e-18)
(-0 -0 -1.65976e-18)
(-0 -0 1.87194e-19)
(-0 -0 -5.51418e-19)
(-0 -0 3.6973e-19)
(-0 -0 1.29384e-18)
(-0 -0 -2.03415e-18)
(-0 -0 -2.5411e-21)
(-0 -0 1.85077e-18)
(-0 -0 -2.22473e-18)
(-0 -0 3.34282e-18)
(-0 -0 -2.60378e-18)
(-0 -0 2.22981e-18)
(-0 -0 -2.42082e-18)
(-0 -0 -1.49035e-18)
(-0 -0 2.61013e-18)
(-0 -0 -2.80326e-18)
(-0 -0 2.61521e-18)
(-0 -0 -1.86771e-19)
(-0 -0 1.49628e-18)
(-0 -0 -2.06422e-18)
(-0 -0 -2.62877e-18)
(-0 -0 3.0057e-18)
(-0 -0 1.50391e-18)
(-0 -0 -1.13164e-18)
(-0 -0 -1.13037e-18)
(-0 -0 9.43171e-19)
(-0 -0 -9.44442e-19)
(-0 -0 5.62853e-19)
(-0 -0 1.13206e-18)
(-0 -0 -3.59777e-18)
(-0 -0 3.03111e-18)
(-0 -0 5.70477e-19)
(-0 -0 3.82859e-19)
(-0 -0 -4.23516e-22)
(-0 -0 -1.93124e-19)
(-0 -0 -1.33154e-18)
(-0 -0 5.68359e-19)
(-0 -0 -2.28784e-18)
(-0 -0 -7.64024e-19)
(-0 -0 3.82012e-18)
(-0 -0 1.93124e-19)
(-0 -0 -4.02002e-18)
(-0 -0 2.68509e-18)
(-0 -0 2.6834e-18)
(-0 -0 -3.45759e-18)
(-0 -0 3.84553e-19)
(-0 -0 2.49959e-18)
(-0 -0 -4.81369e-18)
(-0 -0 1.92785e-18)
(-0 -0 1.92615e-18)
(-0 -0 -9.66465e-19)
(-0 -0 -1.93971e-19)
(-0 -0 -3.84553e-19)
(-0 -0 1.54753e-18)
(-0 -0 -2.32595e-18)
(-0 -0 7.74188e-19)
(-0 -0 -1.55431e-18)
(-0 -0 7.75035e-19)
(-0 -0 4.0827e-18)
(-0 -0 -4.66969e-18)
(-0 -0 2.14553e-18)
(-0 -0 1.69407e-21)
(-0 -0 1.17229e-18)
(-0 -0 -1.17145e-18)
(-0 -0 1.69407e-21)
(-0 -0 -2.154e-18)
(-0 -0 5.86994e-19)
(-0 -0 3.72694e-18)
(-0 -0 -2.75032e-18)
(-0 -0 1.97359e-19)
(-0 -0 -9.84252e-19)
(-0 -0 2.7537e-18)
(-0 -0 -2.36576e-18)
(-0 -0 9.85099e-19)
(-0 -0 -7.87741e-19)
(-0 -0 1.38405e-18)
(-0 -0 -5.9377e-19)
(-0 -0 -7.91976e-19)
(-0 -0 1.38829e-18)
(-0 -0 -2.77488e-18)
(-0 -0 -8.47033e-22)
(-0 -0 1.99053e-19)
(-0 -0 3.78031e-18)
(-0 -0 1.69407e-21)
(-0 -0 -1.79656e-18)
(-0 -0 -1.59581e-18)
(-0 -0 -1.59581e-18)
(-0 -0 5.1957e-18)
(-0 -0 -1.3993e-18)
(-0 -0 6.00546e-19)
(-0 -0 -2.20652e-18)
(-0 -0 1.40353e-18)
(-0 -0 -4.00647e-19)
(-0 -0 -3.01628e-18)
(-0 -0 1.40523e-18)
(-0 -0 1.69407e-21)
(-0 -0 1.41031e-18)
(-0 -0 -6.06476e-19)
(-0 -0 2.04135e-19)
(-0 -0 1.21126e-18)
(-0 -0 -3.64394e-18)
(-0 -0 1.82281e-18)
(-0 -0 1.62037e-18)
(-0 -0 -3.24414e-18)
(-0 -0 3.65495e-18)
(-0 -0 -2.43607e-18)
(-0 -0 1.62715e-18)
(-0 -0 -2.44369e-18)
(-0 -0 1.62969e-18)
(-0 -0 -2.44708e-18)
(-0 -0 3.2687e-18)
(-0 -0 4.05729e-19)
(-0 -0 -2.04474e-18)
(-0 -0 1.63816e-18)
(-0 -0 -2.05067e-18)
(-0 -0 -1.23159e-18)
(-0 -0 4.10472e-18)
(-0 -0 -4.1115e-18)
(-0 -0 1.64663e-18)
(-0 -0 2.05829e-18)
(-0 -0 -4.12505e-19)
(-0 -0 -1.65171e-18)
(-0 -0 -2.06591e-18)
(-0 -0 4.96192e-18)
(-0 -0 -2.5411e-21)
(-0 -0 -2.07184e-18)
(-0 -0 8.27551e-19)
(-0 -0 -2.07184e-18)
(-0 -0 4.18434e-19)
(-0 -0 8.32633e-19)
(-0 -0 -2.08285e-18)
(-0 -0 5.41423e-18)
(-0 -0 -4.58245e-18)
(-0 -0 2.08963e-18)
(-0 -0 -1.25276e-18)
(-0 -0 -4.15893e-19)
(-0 -0 2.09217e-18)
(-0 -0 8.37716e-19)
(-0 -0 -1.67797e-18)
(-0 -0 8.40257e-19)
(-0 -0 -1.68136e-18)
(-0 -0 2.94259e-18)
(-0 -0 -3.36526e-18)
(-0 -0 4.18434e-19)
(-0 -0 2.10827e-18)
(-0 -0 -8.40257e-19)
(-0 -0 -1.69407e-18)
(-0 -0 4.20975e-19)
(-0 -0 4.20128e-19)
(-0 -0 2.12012e-18)
(-0 -0 -8.4788e-19)
(-0 -0 -4.24364e-19)
(-0 -0 -1.27478e-18)
(-0 -0 -8.49574e-19)
(-0 -0 2.98071e-18)
(-0 -0 8.50421e-19)
(-0 -0 -8.52115e-19)
(-0 -0 -4.26735e-18)
(-0 -0 -4.29446e-19)
(-0 -0 3.84553e-18)
(-0 -0 -3.85231e-18)
(-0 -0 4.27752e-19)
(-0 -0 2.5699e-18)
(-0 -0 8.55503e-19)
(-0 -0 1.29003e-18)
(-0 -0 1.71863e-18)
(-0 -0 -2.5826e-18)
(-0 -0 2.1557e-18)
(-0 -0 -8.65668e-19)
(-0 -0 -2.15993e-18)
(-0 -0 -1.2985e-18)
(-0 -0 2.59616e-18)
(-0 -0 4.34528e-19)
(-0 -0 8.68209e-19)
(-0 -0 -1.73134e-18)
(-0 -0 -4.36222e-19)
(-0 -0 2.60547e-18)
(-0 -0 -1.30358e-18)
(-0 -0 -3.48469e-18)
(-0 -0 8.72444e-19)
(-0 -0 1.74404e-18)
(-0 -0 -8.7075e-19)
(-0 -0 -1.74489e-18)
(-0 -0 4.81199e-18)
(-0 -0 -2.62157e-18)
(-0 -0 -8.74985e-19)
(-0 -0 4.41304e-19)
(-0 -0 8.47033e-22)
(-0 -0 1.31798e-18)
(-0 -0 -2.19805e-18)
(-0 -0 3.51857e-18)
(-0 -0 -3.5262e-18)
(-0 -0 8.47033e-22)
(-0 -0 8.80067e-19)
(-0 -0 -1.69407e-21)
(-0 -0 -1.3273e-18)
(-0 -0 1.32561e-18)
(-0 -0 -1.77115e-18)
(-0 -0 1.33069e-18)
(-0 -0 -1.77199e-18)
(-0 -0 -4.44692e-19)
(-0 -0 -1.33408e-18)
(-0 -0 6.67801e-18)
(-0 -0 -2.67324e-18)
(-0 -0 -3.12386e-18)
(-0 -0 5.35664e-18)
(-0 -0 -5.36426e-18)
(-0 -0 2.68425e-18)
(-0 -0 2.23956e-18)
(-0 -0 -1.3417e-18)
(-0 -0 4.48927e-19)
(-0 -0 -1.34509e-18)
(-0 -0 -8.97008e-19)
(-0 -0 2.6978e-18)
(-0 -0 2.5411e-21)
(-0 -0 1.35271e-18)
(-0 -0 -4.06152e-18)
(-0 -0 4.50622e-19)
(-0 -0 3.16452e-18)
(-0 -0 -4.07253e-18)
(-0 -0 9.05478e-19)
(-0 -0 3.62445e-18)
(-0 -0 -4.081e-18)
(-0 -0 4.51469e-19)
(-0 -0 -9.1056e-19)
(-0 -0 1.36626e-18)
(-0 -0 -4.52316e-19)
(-0 -0 4.5401e-19)
(-0 -0 -3.64902e-18)
(-0 -0 5.47692e-18)
(-0 -0 -4.56805e-18)
(-0 -0 2.28699e-18)
(-0 -0 3.66426e-18)
(-0 -0 -4.12251e-18)
(-0 -0 4.13013e-18)
(-0 -0 -3.67528e-18)
(-0 -0 1.69407e-21)
(-0 -0 4.58245e-19)
(-0 -0 4.59939e-19)
(-0 -0 -9.19878e-19)
(-0 -0 4.63327e-19)
(-0 -0 8.47033e-22)
(-0 -0 9.25807e-19)
(-0 -0 -1.38744e-18)
(-0 -0 1.85161e-18)
(-0 -0 -9.28348e-19)
(-0 -0 -2.31748e-18)
(-0 -0 4.6248e-19)
(-0 -0 3.25007e-18)
(-0 -0 -1.39168e-18)
(-0 -0 9.31736e-19)
(-0 -0 -1.86517e-18)
(-0 -0 -1.86432e-18)
(-0 -0 5.60058e-18)
(-0 -0 -2.80283e-18)
(-0 -0 -4.66715e-19)
(-0 -0 -1.40607e-18)
(-0 -0 2.3412e-18)
(-0 -0 2.34543e-18)
(-0 -0 -1.40777e-18)
(-0 -0 1.88041e-18)
(-0 -0 -2.82485e-18)
(-0 -0 -4.71797e-19)
(-0 -0 -1.88719e-18)
(-0 -0 2.82994e-18)
(-0 -0 -4.68409e-19)
(-0 -0 -2.36237e-18)
(-0 -0 2.5411e-21)
(-0 -0 2.3683e-18)
(-0 -0 -3.79301e-18)
(-0 -0 1.89651e-18)
(-0 -0 3.32291e-18)
(-0 -0 -5.23043e-18)
(-0 -0 3.33307e-18)
(-0 -0 -2.38101e-18)
(-0 -0 1.90582e-18)
(-0 -0 4.74338e-19)
(-0 -0 -3.81842e-18)
(-0 -0 1.9126e-18)
(-0 -0 5.26177e-18)
(-0 -0 -3.83198e-18)
(-0 -0 -2.87822e-18)
(-0 -0 5.27956e-18)
(-0 -0 -4.32156e-18)
(-0 -0 1.43996e-18)
(-0 -0 4.32664e-18)
(-0 -0 -2.89092e-18)
(-0 -0 -2.89346e-18)
(-0 -0 3.37966e-18)
(-0 -0 2.41574e-18)
(-0 -0 -3.86755e-18)
(-0 -0 -9.65618e-19)
(-0 -0 9.66465e-19)
(-0 -0 -3.87602e-18)
(-0 -0 6.79151e-18)
(-0 -0 -1.94225e-18)
(-0 -0 -1.94648e-18)
(-0 -0 -9.707e-19)
(-0 -0 9.74935e-19)
(-0 -0 1.46198e-18)
(-0 -0 -4.90432e-19)
(-0 -0 -1.46621e-18)
(-0 -0 4.87891e-19)
(-0 -0 -4.89585e-19)
(-0 -0 4.895e-18)
(-0 -0 -3.43302e-18)
(-0 -0 -9.80864e-19)
(-0 -0 -2.5411e-21)
(-0 -0 4.91279e-19)
(-0 -0 9.84252e-19)
(-0 -0 9.81711e-19)
(-0 -0 -3.45251e-18)
(-0 -0 2.96377e-18)
(-0 -0 2.46995e-18)
(-0 -0 -2.96631e-18)
(-0 -0 -2.96716e-18)
(-0 -0 2.48011e-18)
(-0 -0 -2.47503e-18)
(-0 -0 5.46082e-18)
(-0 -0 4.95514e-19)
(-0 -0 -2.98494e-18)
(-0 -0 4.96361e-19)
(-0 -0 -9.92723e-19)
(-0 -0 -1.99561e-18)
(-0 -0 1.50094e-18)
(-0 -0 3.99461e-18)
(-0 -0 5.02291e-19)
(-0 -0 -3.00019e-18)
(-0 -0 2.50044e-18)
(-0 -0 -3.50587e-18)
(-0 -0 1.00543e-18)
(-0 -0 -4.01917e-18)
(-0 -0 6.03172e-18)
(-0 -0 -5.06526e-19)
(-0 -0 1.00797e-18)
(-0 -0 8.47033e-22)
(-0 -0 -1.00797e-18)
(-0 -0 -2.01763e-18)
(-0 -0 -1.69407e-21)
(-0 -0 2.0261e-18)
(-0 -0 -1.51958e-18)
(-0 -0 2.02441e-18)
(-0 -0 -3.55246e-18)
(-0 -0 -1.69407e-21)
(-0 -0 2.03457e-18)
(-0 -0 -2.03796e-18)
(-0 -0 4.07931e-18)
(-0 -0 -5.09575e-18)
(-0 -0 1.01983e-18)
(-0 -0 2.04304e-18)
(-0 -0 -5.111e-18)
(-0 -0 4.09625e-18)
(-0 -0 -1.02491e-18)
(-0 -0 3.07304e-18)
(-0 -0 -2.0549e-18)
(-0 -0 1.0266e-18)
(-0 -0 -1.0283e-18)
(-0 -0 1.54668e-18)
(-0 -0 -2.57667e-18)
(-0 -0 1.54838e-18)
(-0 -0 1.02999e-18)
(-0 -0 -2.06337e-18)
(-0 -0 1.03169e-18)
(-0 -0 -1.03677e-18)
(-0 -0 5.20078e-19)
(-0 -0 -1.03846e-18)
(-0 -0 5.18384e-19)
(-0 -0 1.03677e-18)
(-0 -0 1.55515e-18)
(-0 -0 5.21772e-19)
(-0 -0 -5.21772e-19)
(-0 -0 0)
(-0 -0 -3.65241e-18)
(-0 -0 2.09048e-18)
(-0 -0 -1.04693e-18)
(-0 -0 -4.18773e-18)
(-0 -0 1.56871e-18)
(-0 -0 2.09725e-18)
(-0 -0 -3.14927e-18)
(-0 -0 6.82539e-18)
(-0 -0 -3.15774e-18)
(-0 -0 1.04863e-18)
(-0 -0 -2.10742e-18)
(-0 -0 3.16452e-18)
(-0 -0 -2.64105e-18)
(-0 -0 5.28718e-18)
(-0 -0 -2.11419e-18)
(-0 -0 -5.29396e-18)
(-0 -0 5.83097e-18)
(-0 -0 -5.31937e-19)
(-0 -0 -5.83945e-18)
(-0 -0 6.90501e-18)
(-0 -0 -4.78404e-18)
(-0 -0 1.06218e-18)
(-0 -0 5.31937e-19)
(-0 -0 -5.35325e-19)
(-0 -0 1.60259e-18)
(-0 -0 -4.80776e-18)
(-0 -0 3.21025e-18)
(-0 -0 1.07065e-18)
(-0 -0 -2.14638e-18)
(-0 -0 3.75405e-18)
(-0 -0 -3.22211e-18)
(-0 -0 -5.35325e-19)
(-0 -0 -5.40407e-19)
(-0 -0 -1.69407e-21)
(-0 -0 3.23736e-18)
(-0 -0 5.40407e-19)
(-0 -0 -2.15655e-18)
(-0 -0 1.62122e-18)
(-0 -0 -2.70034e-18)
(-0 -0 1.08251e-18)
(-0 -0 1.0859e-18)
(-0 -0 -1.6263e-18)
(-0 -0 1.62969e-18)
(-0 -0 -2.17687e-18)
(-0 -0 5.47183e-19)
(-0 -0 3.80826e-18)
(-0 -0 -5.42101e-19)
(-0 -0 -2.18365e-18)
(-0 -0 -5.43795e-19)
(-0 -0 -5.48877e-19)
(-0 -0 2.18704e-18)
(-0 -0 3.38813e-21)
(-0 -0 -1.64494e-18)
(-0 -0 2.1972e-18)
(-0 -0 -4.38932e-18)
(-0 -0 2.1989e-18)
(-0 -0 -1.09437e-18)
(-0 -0 -1.10284e-18)
(-0 -0 5.50741e-18)
(-0 -0 -3.3102e-18)
(-0 -0 3.31529e-18)
(-0 -0 -4.41982e-18)
(-0 -0 3.32037e-18)
(-0 -0 -3.32037e-18)
(-0 -0 3.32715e-18)
(-0 -0 -3.32884e-18)
(-0 -0 3.32884e-18)
(-0 -0 -2.226e-18)
(-0 -0 1.10961e-18)
(-0 -0 -2.2277e-18)
(-0 -0 1.113e-18)
(-0 -0 -1.12317e-18)
(-0 -0 2.23108e-18)
(-0 -0 -2.23447e-18)
(-0 -0 1.11808e-18)
(-0 -0 1.12147e-18)
(-0 -0 -1.11808e-18)
(-0 -0 1.69407e-21)
(-0 -0 1.12486e-18)
(-0 -0 0)
(-0 -0 1.12317e-18)
(-0 -0 -2.25141e-18)
(-0 -0 2.2548e-18)
(-0 -0 1.69407e-21)
(-0 -0 -1.69407e-21)
(-0 -0 -2.2565e-18)
(-0 -0 1.12994e-18)
(-0 -0 -3.39999e-18)
(-0 -0 1.13333e-18)
(-0 -0 1.13333e-18)
(-0 -0 2.27005e-18)
(-0 -0 -2.27513e-18)
(-0 -0 1.13672e-18)
(-0 -0 1.14011e-18)
(-0 -0 -1.14349e-18)
(-0 -0 -2.28021e-18)
(-0 -0 3.4271e-18)
(-0 -0 -2.2836e-18)
(-0 -0 2.28699e-18)
(-0 -0 -2.28699e-18)
(-0 -0 -1.69407e-21)
(-0 -0 -1.15027e-18)
(-0 -0 1.15027e-18)
(-0 -0 1.69407e-21)
(-0 -0 1.15027e-18)
(-0 -0 0)
(-0 -0 -2.30562e-18)
(-0 -0 -1.15535e-18)
(-0 -0 4.61802e-18)
(-0 -0 -3.46945e-18)
(-0 -0 2.31579e-18)
(-0 -0 -1.15874e-18)
(-0 -0 2.32087e-18)
(-0 -0 -4.64174e-18)
(-0 -0 4.64852e-18)
(-0 -0 -2.32765e-18)
(-0 -0 1.69407e-21)
(-0 -0 1.69407e-21)
(-0 -0 1.16382e-18)
(-0 -0 -3.38813e-21)
(-0 -0 -3.38813e-21)
(-0 -0 0)
(-0 -0 0)
(-0 -0 -1.69407e-21)
(-0 -0 3.38813e-21)
(-0 -0 -1.17229e-18)
(-0 -0 2.34628e-18)
(-0 -0 -3.52705e-18)
(-0 -0 0)
(-0 -0 3.53043e-18)
(-0 -0 -1.69407e-21)
(-0 -0 -3.5389e-18)
(-0 -0 -2.35983e-18)
(-0 -0 2.36492e-18)
(-0 -0 -1.69407e-21)
(-0 -0 -1.18585e-18)
(-0 -0 4.74e-18)
(-0 -0 1.69407e-21)
(-0 -0 -3.56093e-18)
(-0 -0 2.38016e-18)
(-0 -0 -2.38186e-18)
(-0 -0 2.38355e-18)
(-0 -0 -1.19601e-18)
(-0 -0 0)
(-0 -0 -1.1977e-18)
(-0 -0 1.69407e-21)
(-0 -0 -1.1994e-18)
(-0 -0 0)
(-0 -0 -1.1977e-18)
(-0 -0 3.59989e-18)
(-0 -0 -1.1994e-18)
(-0 -0 3.60667e-18)
(-0 -0 1.20279e-18)
(-0 -0 -1.20448e-18)
(-0 -0 0)
(-0 -0 0)
(-0 -0 0)
(-0 -0 1.69407e-21)
(-0 -0 -4.83995e-18)
(-0 -0 4.84842e-18)
(-0 -0 -3.63716e-18)
(-0 -0 -1.21126e-18)
(-0 -0 -1.21465e-18)
(-0 -0 4.86197e-18)
(-0 -0 1.21803e-18)
(-0 -0 -2.43607e-18)
(-0 -0 1.21634e-18)
(-0 -0 -1.69407e-21)
(-0 -0 -2.44454e-18)
(-0 -0 1.22142e-18)
(-0 -0 -1.22481e-18)
(-0 -0 2.45131e-18)
(-0 -0 -2.45301e-18)
(-0 -0 -1.2265e-18)
(-0 -0 0)
(-0 -0 2.45978e-18)
(-0 -0 1.22989e-18)
(-0 -0 -2.46317e-18)
(-0 -0 1.23328e-18)
(-0 -0 1.23667e-18)
(-0 -0 -1.23497e-18)
(-0 -0 -1.23836e-18)
(-0 -0 2.47672e-18)
(-0 -0 0)
(-0 -0 -1.24175e-18)
(-0 -0 2.48011e-18)
(-0 -0 -2.48689e-18)
(-0 -0 3.72864e-18)
(-0 -0 -2.48858e-18)
(-0 -0 1.24344e-18)
(-0 -0 -2.49875e-18)
(-0 -0 0)
(-0 -0 -2.49705e-18)
(-0 -0 5.00427e-18)
(-0 -0 -5.00766e-18)
(-0 -0 3.76083e-18)
(-0 -0 -3.76252e-18)
(-0 -0 3.76591e-18)
(-0 -0 1.26039e-18)
(-0 -0 -2.51399e-18)
(-0 -0 2.51569e-18)
(-0 -0 -5.03985e-18)
(-0 -0 1.26377e-18)
(-0 -0 5.04832e-18)
(-0 -0 -1.26208e-18)
(-0 -0 -1.26208e-18)
(-0 -0 -2.53093e-18)
(-0 -0 1.69407e-21)
(-0 -0 1.27055e-18)
(-0 -0 2.53771e-18)
(-0 -0 -2.5394e-18)
(-0 -0 -1.26886e-18)
(-0 -0 3.82012e-18)
(-0 -0 -3.82689e-18)
(-0 -0 0)
(-0 -0 5.1093e-18)
(-0 -0 -3.83367e-18)
(-0 -0 2.55973e-18)
(-0 -0 -1.28071e-18)
(-0 -0 -2.56143e-18)
(-0 -0 3.84553e-18)
(-0 -0 0)
(-0 -0 -1.2841e-18)
(-0 -0 2.57329e-18)
(-0 -0 -1.29088e-18)
(-0 -0 -2.57667e-18)
(-0 -0 1.69407e-21)
(-0 -0 2.58345e-18)
(-0 -0 -2.58514e-18)
(-0 -0 -1.69407e-21)
(-0 -0 -1.69407e-21)
(-0 -0 1.29427e-18)
(-0 -0 0)
(-0 -0 1.29935e-18)
(-0 -0 -3.90143e-18)
(-0 -0 2.60039e-18)
(-0 -0 -2.60547e-18)
(-0 -0 1.30443e-18)
(-0 -0 -1.69407e-21)
(-0 -0 3.91499e-18)
(-0 -0 -1.30274e-18)
(-0 -0 -3.92346e-18)
(-0 -0 0)
(-0 -0 3.93362e-18)
(-0 -0 -2.62241e-18)
(-0 -0 2.6258e-18)
(-0 -0 -3.9404e-18)
(-0 -0 0)
(-0 -0 3.94717e-18)
(-0 -0 -2.63427e-18)
(-0 -0 3.96073e-18)
(-0 -0 -3.95734e-18)
(-0 -0 1.32137e-18)
(-0 -0 -2.64613e-18)
(-0 -0 -1.32645e-18)
(-0 -0 5.30581e-18)
(-0 -0 1.32645e-18)
(-0 -0 1.69407e-21)
(-0 -0 -3.98614e-18)
(-0 -0 1.69407e-21)
(-0 -0 -1.33154e-18)
(-0 -0 2.66477e-18)
(-0 -0 -1.33154e-18)
(-0 -0 -2.66307e-18)
(-0 -0 5.34308e-18)
(-0 -0 1.33831e-18)
(-0 -0 -1.34001e-18)
(-0 -0 -5.35833e-18)
(-0 -0 4.0251e-18)
(-0 -0 -1.34509e-18)
(-0 -0 5.37358e-18)
(-0 -0 -6.72714e-18)
(-0 -0 -1.34848e-18)
(-0 -0 2.69695e-18)
(-0 -0 -1.35186e-18)
(-0 -0 4.05221e-18)
(-0 -0 -1.34848e-18)
(-0 -0 -4.06068e-18)
(-0 -0 4.05898e-18)
(-0 -0 -1.36033e-18)
(-0 -0 2.71559e-18)
(-0 -0 -1.69407e-21)
(-0 -0 -4.07762e-18)
(-0 -0 2.72067e-18)
(-0 -0 -2.72575e-18)
(-0 -0 1.36203e-18)
(-0 -0 -2.73253e-18)
(-0 -0 4.09286e-18)
(-0 -0 0)
(-0 -0 1.36542e-18)
(-0 -0 0)
(-0 -0 -2.7393e-18)
(-0 -0 1.37219e-18)
(-0 -0 -2.74777e-18)
(-0 -0 1.37389e-18)
(-0 -0 4.13013e-18)
(-0 -0 -3.38813e-21)
(-0 -0 -4.13691e-18)
(-0 -0 1.38405e-18)
(-0 -0 1.38236e-18)
(-0 -0 0)
(-0 -0 -2.7698e-18)
(-0 -0 -1.38744e-18)
(-0 -0 1.69407e-21)
(-0 -0 1.39252e-18)
(-0 -0 -1.38575e-18)
(-0 -0 -1.69407e-21)
(-0 -0 1.39591e-18)
(-0 -0 -2.78674e-18)
(-0 -0 5.58025e-18)
(-0 -0 -2.78843e-18)
(-0 -0 4.18773e-18)
(-0 -0 -4.19451e-18)
(-0 -0 -1.69407e-21)
(-0 -0 1.69407e-21)
(-0 -0 0)
(-0 -0 -3.38813e-21)
(-0 -0 0)
(-0 -0 1.40438e-18)
(-0 -0 -2.81384e-18)
(-0 -0 4.22161e-18)
(-0 -0 -2.81893e-18)
(-0 -0 1.41624e-18)
(-0 -0 1.69407e-21)
(-0 -0 1.69407e-21)
(-0 -0 -1.41285e-18)
(-0 -0 2.83248e-18)
(-0 -0 -2.83417e-18)
(-0 -0 -3.38813e-21)
(-0 -0 -1.41963e-18)
(-0 -0 5.0822e-21)
(-0 -0 3.38813e-21)
(-0 -0 2.84772e-18)
(-0 -0 -5.70731e-18)
(-0 -0 7.13541e-18)
(-0 -0 -5.71747e-18)
(-0 -0 2.85789e-18)
(-0 -0 -1.69407e-21)
(-0 -0 -4.29954e-18)
(-0 -0 5.73611e-18)
(-0 -0 1.43149e-18)
(-0 -0 -4.3097e-18)
(-0 -0 -1.43996e-18)
(-0 -0 4.31479e-18)
(-0 -0 2.8833e-18)
(-0 -0 -1.44334e-18)
(-0 -0 -1.44334e-18)
(-0 -0 -5.77846e-18)
(-0 -0 2.89177e-18)
(-0 -0 5.78862e-18)
(-0 -0 -1.45012e-18)
(-0 -0 -4.34867e-18)
(-0 -0 1.45351e-18)
(-0 -0 -1.4569e-18)
(-0 -0 -2.90871e-18)
(-0 -0 5.82589e-18)
(-0 -0 1.45351e-18)
(-0 -0 -3.38813e-21)
(-0 -0 -1.4569e-18)
(-0 -0 -1.69407e-21)
(-0 -0 -4.38763e-18)
(-0 -0 2.92735e-18)
(-0 -0 1.46876e-18)
(-0 -0 3.38813e-21)
(-0 -0 -1.69407e-21)
(-0 -0 2.94429e-18)
(-0 -0 -7.35225e-18)
(-0 -0 -1.69407e-21)
(-0 -0 1.47214e-18)
(-0 -0 1.47553e-18)
(-0 -0 -2.95445e-18)
(-0 -0 4.43506e-18)
(-0 -0 -1.47892e-18)
(-0 -0 -4.44184e-18)
(-0 -0 5.92584e-18)
(-0 -0 -2.96292e-18)
(-0 -0 1.69407e-21)
(-0 -0 2.9697e-18)
(-0 -0 3.38813e-21)
(-0 -0 1.48231e-18)
(-0 -0 -4.46725e-18)
(-0 -0 5.9665e-18)
(-0 -0 -2.98494e-18)
(-0 -0 -4.4825e-18)
(-0 -0 1.49755e-18)
(-0 -0 1.49417e-18)
(-0 -0 1.49417e-18)
(-0 -0 0)
(-0 -0 2.9985e-18)
(-0 -0 -7.51488e-18)
(-0 -0 6.01732e-18)
(-0 -0 -3.00866e-18)
(-0 -0 -1.51111e-18)
(-0 -0 0)
(-0 -0 -1.51111e-18)
(-0 -0 4.53332e-18)
(-0 -0 0)
(-0 -0 -4.54348e-18)
(-0 -0 -1.51449e-18)
(-0 -0 6.06814e-18)
(-0 -0 1.52127e-18)
(-0 -0 0)
(-0 -0 1.52127e-18)
(-0 -0 -1.52127e-18)
(-0 -0 -3.04593e-18)
(-0 -0 -1.52466e-18)
(-0 -0 6.10541e-18)
(-0 -0 -4.58753e-18)
(-0 -0 0)
(-0 -0 0)
(-0 -0 0)
(-0 -0 0)
(-0 -0 -1.53482e-18)
(-0 -0 6.14946e-18)
(-0 -0 -4.61802e-18)
(-0 -0 -1.54499e-18)
(-0 -0 3.38813e-21)
(-0 -0 3.0832e-18)
(-0 -0 0)
(-0 -0 -1.54499e-18)
(-0 -0 0)
(-0 -0 3.09675e-18)
(-0 -0 -6.20028e-18)
(-0 -0 7.75543e-18)
(-0 -0 -4.65868e-18)
(-0 -0 4.66207e-18)
(-0 -0 -7.77576e-18)
(-0 -0 1.55515e-18)
(-0 -0 1.55854e-18)
(-0 -0 -1.55854e-18)
(-0 -0 3.12047e-18)
(-0 -0 -1.56193e-18)
(-0 -0 3.13063e-18)
(-0 -0 1.56532e-18)
(-0 -0 1.56532e-18)
(-0 -0 -6.27482e-18)
(-0 -0 -1.56871e-18)
(-0 -0 4.7095e-18)
(-0 -0 -4.71628e-18)
(-0 -0 4.72306e-18)
(-0 -0 -4.73322e-18)
(-0 -0 1.57887e-18)
(-0 -0 0)
(-0 -0 3.16113e-18)
(-0 -0 -1.58226e-18)
(-0 -0 -1.57887e-18)
(-0 -0 -1.58565e-18)
(-0 -0 7.93162e-18)
(-0 -0 -3.1679e-18)
(-0 -0 -4.7671e-18)
(-0 -0 1.59242e-18)
(-0 -0 1.58903e-18)
(-0 -0 1.59581e-18)
(-0 -0 -4.78743e-18)
(-0 -0 -1.59581e-18)
(-0 -0 6.3934e-18)
(-0 -0 -4.79759e-18)
(-0 -0 0)
(-0 -0 0)
(-0 -0 3.21195e-18)
(-0 -0 1.5992e-18)
(-0 -0 -4.82131e-18)
(-0 -0 3.38813e-21)
(-0 -0 3.22211e-18)
(-0 -0 0)
(-0 -0 -1.61953e-18)
(-0 -0 -1.61614e-18)
(-0 -0 1.61614e-18)
(-0 -0 -1.62292e-18)
(-0 -0 3.23905e-18)
(-0 -0 -3.38813e-21)
(-0 -0 -6.49166e-18)
(-0 -0 8.12474e-18)
(-0 -0 -3.25261e-18)
(-0 -0 -3.25599e-18)
(-0 -0 3.25938e-18)
(-0 -0 -4.88907e-18)
(-0 -0 8.15523e-18)
(-0 -0 3.38813e-21)
(-0 -0 -1.63986e-18)
(-0 -0 3.27294e-18)
(-0 -0 -3.26955e-18)
(-0 -0 -3.27632e-18)
(-0 -0 3.27971e-18)
(-0 -0 0)
(-0 -0 0)
(-0 -0 -3.38813e-21)
(-0 -0 1.64663e-18)
(-0 -0 -1.65002e-18)
(-0 -0 -1.65002e-18)
(-0 -0 4.94667e-18)
(-0 -0 -6.61025e-18)
(-0 -0 0)
(-0 -0 4.96361e-18)
(-0 -0 -3.32037e-18)
(-0 -0 3.31698e-18)
(-0 -0 -4.98394e-18)
(-0 -0 3.32037e-18)
(-0 -0 -3.33053e-18)
(-0 -0 -3.38813e-21)
(-0 -0 5.00088e-18)
(-0 -0 -1.67713e-18)
(-0 -0 -3.38813e-21)
(-0 -0 -3.38813e-21)
(-0 -0 0)
(-0 -0 -3.34747e-18)
(-0 -0 1.67713e-18)
(-0 -0 -1.68051e-18)
(-0 -0 3.35764e-18)
(-0 -0 -3.36103e-18)
(-0 -0 0)
(-0 -0 1.6839e-18)
(-0 -0 -1.68729e-18)
(-0 -0 3.38813e-21)
(-0 -0 5.06526e-18)
(-0 -0 -1.69068e-18)
(-0 -0 -3.39152e-18)
(-0 -0 5.08559e-18)
(-0 -0 -1.69407e-18)
(-0 -0 3.39152e-18)
(-0 -0 -3.3983e-18)
(-0 -0 3.38813e-21)
(-0 -0 0)
(-0 -0 -3.40846e-18)
(-0 -0 6.82031e-18)
(-0 -0 -3.41524e-18)
(-0 -0 -3.41862e-18)
(-0 -0 6.83725e-18)
(-0 -0 -3.42201e-18)
(-0 -0 -3.4254e-18)
(-0 -0 3.42879e-18)
(-0 -0 3.43218e-18)
(-0 -0 -3.43557e-18)
(-0 -0 -3.43895e-18)
(-0 -0 3.44234e-18)
(-0 -0 -6.88807e-18)
(-0 -0 3.45251e-18)
(-0 -0 3.44912e-18)
(-0 -0 0)
(-0 -0 3.45251e-18)
(-0 -0 -3.45928e-18)
(-0 -0 0)
(-0 -0 3.38813e-21)
(-0 -0 0)
(-0 -0 -6.95245e-18)
(-0 -0 3.47622e-18)
(-0 -0 0)
(-0 -0 3.483e-18)
(-0 -0 3.38813e-21)
(-0 -0 3.48978e-18)
(-0 -0 -3.49655e-18)
(-0 -0 3.49994e-18)
(-0 -0 -3.49994e-18)
(-0 -0 -3.50333e-18)
(-0 -0 0)
(-0 -0 3.51349e-18)
(-0 -0 -3.51349e-18)
(-0 -0 3.51688e-18)
(-0 -0 3.52705e-18)
(-0 -0 -3.52366e-18)
(-0 -0 -3.52705e-18)
(-0 -0 3.53382e-18)
(-0 -0 0)
(-0 -0 0)
(-0 -0 -3.38813e-21)
(-0 -0 -3.54399e-18)
(-0 -0 0)
(-0 -0 3.55415e-18)
(-0 -0 3.38813e-21)
(-0 -0 -3.38813e-21)
(-0 -0 -3.55754e-18)
(-0 -0 3.55754e-18)
(-0 -0 0)
(-0 -0 -3.57109e-18)
(-0 -0 3.57109e-18)
(-0 -0 -3.57448e-18)
(-0 -0 3.57787e-18)
(-0 -0 -3.38813e-21)
(-0 -0 0)
(-0 -0 3.38813e-21)
(-0 -0 3.38813e-21)
(-0 -0 0)
(-0 -0 3.38813e-21)
(-0 -0 -3.60497e-18)
(-0 -0 3.38813e-21)
(-0 -0 3.61514e-18)
(-0 -0 6.77626e-21)
(-0 -0 -3.61514e-18)
(-0 -0 0)
(-0 -0 0)
(-0 -0 3.62869e-18)
(-0 -0 -3.38813e-21)
(-0 -0 -3.63547e-18)
(-0 -0 3.63547e-18)
(-0 -0 -3.64563e-18)
(-0 -0 3.64563e-18)
(-0 -0 3.38813e-21)
(-0 -0 -3.64563e-18)
(-0 -0 3.38813e-21)
(-0 -0 3.38813e-21)
(-0 -0 3.65918e-18)
(-0 -0 0)
(-0 -0 3.38813e-21)
(-0 -0 -3.38813e-21)
(-0 -0 -3.67273e-18)
(-0 -0 3.67612e-18)
(-0 -0 -3.6829e-18)
(-0 -0 3.38813e-21)
(-0 -0 3.38813e-21)
(-0 -0 3.69306e-18)
(-0 -0 0)
(-0 -0 3.38813e-21)
(-0 -0 -3.70662e-18)
(-0 -0 6.77626e-21)
(-0 -0 0)
(-0 -0 -3.38813e-21)
(-0 -0 3.71339e-18)
(-0 -0 -3.38813e-21)
(-0 -0 0)
(-0 -0 -3.72356e-18)
(-0 -0 7.46067e-18)
(-0 -0 -7.47422e-18)
(-0 -0 3.38813e-21)
(-0 -0 7.48438e-18)
(-0 -0 -7.49116e-18)
(-0 -0 3.74389e-18)
(-0 -0 -3.75066e-18)
(-0 -0 3.75066e-18)
(-0 -0 0)
(-0 -0 -3.7676e-18)
(-0 -0 3.7676e-18)
(-0 -0 -3.77777e-18)
(-0 -0 -3.38813e-21)
(-0 -0 7.55553e-18)
(-0 -0 -3.78116e-18)
(-0 -0 3.38813e-21)
(-0 -0 3.38813e-21)
(-0 -0 3.38813e-21)
(-0 -0 3.38813e-21)
(-0 -0 3.38813e-21)
(-0 -0 3.38813e-21)
(-0 -0 3.80487e-18)
(-0 -0 -7.61313e-18)
(-0 -0 3.81165e-18)
(-0 -0 -3.81504e-18)
(-0 -0 7.63685e-18)
(-0 -0 -7.64363e-18)
(-0 -0 3.82859e-18)
(-0 -0 0)
(-0 -0 3.38813e-21)
(-0 -0 -3.83537e-18)
(-0 -0 3.38813e-21)
(-0 -0 3.84553e-18)
(-0 -0 -3.85231e-18)
(-0 -0 0)
(-0 -0 3.85569e-18)
(-0 -0 0)
(-0 -0 -3.85908e-18)
(-0 -0 3.86247e-18)
(-0 -0 0)
(-0 -0 -3.86925e-18)
(-0 -0 3.87263e-18)
(-0 -0 0)
(-0 -0 -3.8828e-18)
(-0 -0 0)
(-0 -0 -3.38813e-21)
(-0 -0 3.38813e-21)
(-0 -0 3.89974e-18)
(-0 -0 0)
(-0 -0 -3.90652e-18)
(-0 -0 3.91329e-18)
(-0 -0 0)
(-0 -0 3.38813e-21)
(-0 -0 0)
(-0 -0 -3.92346e-18)
(-0 -0 3.92684e-18)
(-0 -0 -3.93023e-18)
(-0 -0 -3.38813e-21)
(-0 -0 0)
(-0 -0 -3.38813e-21)
(-0 -0 0)
(-0 -0 7.89774e-18)
(-0 -0 -7.90451e-18)
(-0 -0 3.95395e-18)
(-0 -0 -3.96411e-18)
(-0 -0 0)
(-0 -0 0)
(-0 -0 3.97089e-18)
(-0 -0 -3.97767e-18)
(-0 -0 0)
(-0 -0 3.98105e-18)
(-0 -0 -3.98444e-18)
(-0 -0 -3.38813e-21)
(-0 -0 0)
(-0 -0 0)
(-0 -0 3.38813e-21)
(-0 -0 4.00477e-18)
(-0 -0 4.00477e-18)
(-0 -0 0)
(-0 -0 -8.03665e-18)
(-0 -0 -3.38813e-21)
(-0 -0 8.0502e-18)
(-0 -0 -4.0251e-18)
(-0 -0 -3.38813e-21)
(-0 -0 3.38813e-21)
(-0 -0 6.77626e-21)
(-0 -0 -3.38813e-21)
(-0 -0 3.38813e-21)
(-0 -0 -4.04882e-18)
(-0 -0 4.06237e-18)
(-0 -0 0)
(-0 -0 -6.77626e-21)
(-0 -0 -4.06915e-18)
(-0 -0 4.07253e-18)
(-0 -0 0)
(-0 -0 -4.0827e-18)
(-0 -0 -3.38813e-21)
(-0 -0 -3.38813e-21)
(-0 -0 -3.38813e-21)
(-0 -0 4.09286e-18)
(-0 -0 -4.09625e-18)
(-0 -0 0)
(-0 -0 4.10642e-18)
(-0 -0 -4.10642e-18)
(-0 -0 4.1098e-18)
(-0 -0 3.38813e-21)
(-0 -0 -4.12336e-18)
(-0 -0 4.12674e-18)
(-0 -0 0)
(-0 -0 6.77626e-21)
(-0 -0 0)
(-0 -0 -3.38813e-21)
(-0 -0 3.38813e-21)
(-0 -0 -4.14707e-18)
(-0 -0 -3.38813e-21)
(-0 -0 0)
(-0 -0 4.15724e-18)
(-0 -0 -4.16063e-18)
(-0 -0 -3.38813e-21)
(-0 -0 4.1674e-18)
(-0 -0 -4.17079e-18)
(-0 -0 -3.38813e-21)
(-0 -0 -3.38813e-21)
(-0 -0 4.18434e-18)
(-0 -0 -4.19112e-18)
(-0 -0 -3.38813e-21)
(-0 -0 4.20128e-18)
(-0 -0 -4.20467e-18)
(-0 -0 4.20806e-18)
(-0 -0 3.38813e-21)
(-0 -0 -4.21145e-18)
(-0 -0 4.21484e-18)
(-0 -0 -6.77626e-21)
(-0 -0 -4.22161e-18)
(-0 -0 4.22839e-18)
(-0 -0 -4.23516e-18)
(-0 -0 4.23855e-18)
(-0 -0 -6.77626e-21)
(-0 -0 3.38813e-21)
(-0 -0 0)
(-0 -0 3.38813e-21)
(-0 -0 0)
(-0 -0 3.38813e-21)
(-0 -0 0)
(-0 -0 3.38813e-21)
(-0 -0 -3.38813e-21)
(-0 -0 0)
(-0 -0 0)
(-0 -0 -3.38813e-21)
(-0 -0 0)
(-0 -0 6.77626e-21)
(-0 -0 -4.29276e-18)
(-0 -0 -3.38813e-21)
(-0 -0 -3.38813e-21)
(-0 -0 4.31309e-18)
(-0 -0 -4.3097e-18)
(-0 -0 0)
(-0 -0 4.32326e-18)
(-0 -0 3.38813e-21)
(-0 -0 -3.38813e-21)
(-0 -0 -4.33003e-18)
(-0 -0 0)
(-0 -0 4.34358e-18)
(-0 -0 6.77626e-21)
(-0 -0 -4.35036e-18)
(-0 -0 0)
(-0 -0 4.35375e-18)
(-0 -0 0)
(-0 -0 -4.3673e-18)
(-0 -0 4.37069e-18)
(-0 -0 -3.38813e-21)
(-0 -0 3.38813e-21)
(-0 -0 -4.38763e-18)
(-0 -0 4.38763e-18)
(-0 -0 -4.38424e-18)
(-0 -0 -3.38813e-21)
(-0 -0 4.40457e-18)
(-0 -0 0)
(-0 -0 -4.41474e-18)
(-0 -0 4.40796e-18)
(-0 -0 3.38813e-21)
(-0 -0 -3.38813e-21)
(-0 -0 3.38813e-21)
(-0 -0 -4.42829e-18)
(-0 -0 4.43845e-18)
(-0 -0 0)
(-0 -0 0)
(-0 -0 0)
(-0 -0 0)
(-0 -0 -4.45539e-18)
(-0 -0 4.45539e-18)
(-0 -0 0)
(-0 -0 -4.46217e-18)
(-0 -0 6.77626e-21)
(-0 -0 4.47233e-18)
(-0 -0 0)
(-0 -0 3.38813e-21)
(-0 -0 -4.48589e-18)
(-0 -0 4.48927e-18)
(-0 -0 -4.49266e-18)
(-0 -0 4.49944e-18)
(-0 -0 3.38813e-21)
(-0 -0 3.38813e-21)
(-0 -0 -4.51638e-18)
(-0 -0 0)
(-0 -0 4.51977e-18)
(-0 -0 -4.52654e-18)
(-0 -0 4.52654e-18)
(-0 -0 -4.52654e-18)
(-0 -0 3.38813e-21)
(-0 -0 -3.38813e-21)
(-0 -0 4.54348e-18)
(-0 -0 -3.38813e-21)
(-0 -0 -3.38813e-21)
(-0 -0 -3.38813e-21)
(-0 -0 0)
(-0 -0 0)
(-0 -0 -4.57398e-18)
(-0 -0 4.57737e-18)
(-0 -0 6.77626e-21)
(-0 -0 0)
(-0 -0 -4.58414e-18)
(-0 -0 4.59092e-18)
(-0 -0 0)
(-0 -0 -3.38813e-21)
(-0 -0 -3.38813e-21)
(-0 -0 0)
(-0 -0 0)
(-0 -0 -4.61802e-18)
(-0 -0 4.6248e-18)
(-0 -0 -4.63158e-18)
(-0 -0 4.63158e-18)
(-0 -0 -3.38813e-21)
(-0 -0 -4.64513e-18)
(-0 -0 -3.38813e-21)
(-0 -0 0)
(-0 -0 4.65529e-18)
(-0 -0 0)
(-0 -0 0)
(-0 -0 -4.67223e-18)
(-0 -0 4.66885e-18)
(-0 -0 0)
(-0 -0 0)
(-0 -0 3.38813e-21)
(-0 -0 0)
(-0 -0 -3.38813e-21)
(-0 -0 -3.38813e-21)
(-0 -0 -4.70273e-18)
(-0 -0 4.7095e-18)
(-0 -0 3.38813e-21)
(-0 -0 -3.38813e-21)
(-0 -0 -3.38813e-21)
(-0 -0 -4.71289e-18)
(-0 -0 4.72306e-18)
(-0 -0 3.38813e-21)
(-0 -0 0)
(-0 -0 3.38813e-21)
(-0 -0 -4.74338e-18)
(-0 -0 0)
(-0 -0 4.75016e-18)
(-0 -0 0)
(-0 -0 0)
(-0 -0 -4.77049e-18)
(-0 -0 -6.77626e-21)
(-0 -0 4.77727e-18)
(-0 -0 0)
(-0 -0 -4.78743e-18)
(-0 -0 4.79082e-18)
(-0 -0 -4.79421e-18)
(-0 -0 4.80437e-18)
(-0 -0 0)
(-0 -0 -3.38813e-21)
(-0 -0 0)
(-0 -0 0)
(-0 -0 0)
(-0 -0 0)
(-0 -0 -3.38813e-21)
(-0 -0 -4.83486e-18)
(-0 -0 4.83825e-18)
(-0 -0 3.38813e-21)
(-0 -0 -4.84503e-18)
(-0 -0 4.8518e-18)
(-0 -0 -4.85519e-18)
(-0 -0 4.86875e-18)
(-0 -0 -3.38813e-21)
(-0 -0 -4.87552e-18)
(-0 -0 4.87891e-18)
(-0 -0 6.77626e-21)
(-0 -0 -4.8823e-18)
(-0 -0 0)
(-0 -0 4.88907e-18)
(-0 -0 0)
(-0 -0 3.38813e-21)
(-0 -0 -4.9094e-18)
(-0 -0 3.38813e-21)
(-0 -0 6.77626e-21)
(-0 -0 4.91957e-18)
(-0 -0 0)
(-0 -0 3.38813e-21)
(-0 -0 6.77626e-21)
(-0 -0 3.38813e-21)
(-0 -0 -3.38813e-21)
(-0 -0 -4.95006e-18)
(-0 -0 4.95684e-18)
(-0 -0 3.38813e-21)
(-0 -0 0)
(-0 -0 3.38813e-21)
(-0 -0 -4.97717e-18)
(-0 -0 4.98055e-18)
(-0 -0 -4.98394e-18)
(-0 -0 4.98733e-18)
(-0 -0 0)
(-0 -0 0)
(-0 -0 -4.99749e-18)
(-0 -0 5.00427e-18)
(-0 -0 3.38813e-21)
(-0 -0 -5.01105e-18)
(-0 -0 0)
(-0 -0 5.02799e-18)
(-0 -0 -3.38813e-21)
(-0 -0 -3.38813e-21)
(-0 -0 -5.03476e-18)
(-0 -0 3.38813e-21)
(-0 -0 -3.38813e-21)
(-0 -0 5.05509e-18)
(-0 -0 0)
(-0 -0 -5.06526e-18)
(-0 -0 3.38813e-21)
(-0 -0 -3.38813e-21)
(-0 -0 3.38813e-21)
(-0 -0 5.08897e-18)
(-0 -0 0)
(-0 -0 -6.77626e-21)
(-0 -0 6.77626e-21)
(-0 -0 -5.10253e-18)
(-0 -0 5.10253e-18)
(-0 -0 -5.11269e-18)
(-0 -0 5.11608e-18)
(-0 -0 0)
(-0 -0 0)
(-0 -0 -5.12963e-18)
(-0 -0 0)
(-0 -0 5.13641e-18)
(-0 -0 -5.14318e-18)
(-0 -0 5.14657e-18)
(-0 -0 -5.14657e-18)
(-0 -0 -3.38813e-21)
(-0 -0 5.17029e-18)
(-0 -0 3.38813e-21)
(-0 -0 0)
(-0 -0 -3.38813e-21)
(-0 -0 -3.38813e-21)
(-0 -0 -5.18723e-18)
(-0 -0 6.77626e-21)
(-0 -0 5.20078e-18)
(-0 -0 -6.77626e-21)
(-0 -0 -3.38813e-21)
(-0 -0 0)
(-0 -0 -3.38813e-21)
(-0 -0 3.38813e-21)
(-0 -0 0)
(-0 -0 3.38813e-21)
(-0 -0 0)
(-0 -0 -5.24144e-18)
(-0 -0 5.24483e-18)
(-0 -0 -5.25499e-18)
(-0 -0 0)
(-0 -0 5.25499e-18)
(-0 -0 0)
(-0 -0 6.77626e-21)
(-0 -0 3.38813e-21)
(-0 -0 0)
(-0 -0 0)
(-0 -0 0)
(-0 -0 3.38813e-21)
(-0 -0 -5.29904e-18)
(-0 -0 5.30243e-18)
(-0 -0 0)
(-0 -0 -6.77626e-21)
(-0 -0 0)
(-0 -0 -5.32614e-18)
(-0 -0 5.32614e-18)
(-0 -0 -3.38813e-21)
(-0 -0 0)
(-0 -0 -5.34647e-18)
(-0 -0 5.34986e-18)
(-0 -0 3.38813e-21)
(-0 -0 -3.38813e-21)
(-0 -0 3.38813e-21)
(-0 -0 0)
(-0 -0 3.38813e-21)
(-0 -0 -5.38713e-18)
(-0 -0 5.38713e-18)
(-0 -0 0)
(-0 -0 0)
(-0 -0 -5.40068e-18)
(-0 -0 5.40746e-18)
(-0 -0 3.38813e-21)
(-0 -0 3.38813e-21)
(-0 -0 3.38813e-21)
(-0 -0 -5.42101e-18)
(-0 -0 5.42779e-18)
(-0 -0 -5.43795e-18)
(-0 -0 5.44473e-18)
(-0 -0 3.38813e-21)
(-0 -0 -5.45489e-18)
(-0 -0 5.45828e-18)
(-0 -0 -5.46167e-18)
(-0 -0 5.47183e-18)
(-0 -0 3.38813e-21)
(-0 -0 0)
(-0 -0 3.38813e-21)
(-0 -0 -5.48539e-18)
(-0 -0 5.49216e-18)
(-0 -0 6.77626e-21)
(-0 -0 -5.49555e-18)
(-0 -0 5.51249e-18)
(-0 -0 -3.38813e-21)
(-0 -0 -5.51249e-18)
(-0 -0 5.51927e-18)
(-0 -0 -5.53282e-18)
(-0 -0 5.53621e-18)
(-0 -0 -5.53621e-18)
(-0 -0 5.54637e-18)
(-0 -0 0)
(-0 -0 3.38813e-21)
(-0 -0 -5.55654e-18)
(-0 -0 -3.38813e-21)
(-0 -0 3.38813e-21)
(-0 -0 5.57348e-18)
(-0 -0 3.38813e-21)
(-0 -0 -3.38813e-21)