/*--------------------------------*- C++ -*----------------------------------*\
| =========                 |                                                 |
| \\      /  F ield         | OpenFOAM: The Open Source CFD Toolbox           |
|  \\    /   O peration     | Version:  v2012                                 |
|   \\  /    A nd           | Website:  www.openfoam.com                      |
|    \\/     M anipulation  |                                                 |
\*---------------------------------------------------------------------------*/
FoamFile
{
    version     2.0;
    format      ascii;
    class       volScalarField;
    location    "48.5";
    object      rho_b;
}
// * * * * * * * * * * * * * * * * * * * * * * * * * * * * * * * * * * * * * //

dimensions      [1 -3 0 0 0 0 0];


internalField   nonuniform List<scalar> 
3200
(
0.059283
0.0594581
0.0596336
0.0598095
0.0599857
0.0601622
0.0603392
0.0605164
0.0606941
0.060872
0.0610504
0.0612291
0.0614081
0.0615875
0.0617672
0.0619474
0.0621278
0.0623086
0.0624898
0.0626714
0.0628532
0.0630355
0.0632181
0.0634011
0.0635844
0.0637681
0.0639521
0.0641365
0.0643212
0.0645064
0.0646918
0.0648776
0.0650638
0.0652504
0.0654373
0.0656246
0.0658122
0.0660002
0.0661885
0.0663772
0.0665663
0.0667557
0.0669455
0.0671357
0.0673262
0.067517
0.0677083
0.0678999
0.0680918
0.0682841
0.0684768
0.0686699
0.0688633
0.0690571
0.0692512
0.0694457
0.0696405
0.0698358
0.0700314
0.0702273
0.0704236
0.0706203
0.0708174
0.0710148
0.0712125
0.0714107
0.0716092
0.0718081
0.0720073
0.0722069
0.0724069
0.0726072
0.0728079
0.073009
0.0732104
0.0734122
0.0736143
0.0738169
0.0740198
0.074223
0.0744267
0.0746307
0.074835
0.0750398
0.0752449
0.0754503
0.0756562
0.0758624
0.076069
0.0762759
0.0764832
0.0766909
0.0768989
0.0771073
0.0773161
0.0775253
0.0777348
0.0779447
0.078155
0.0783656
0.0785766
0.078788
0.0789997
0.0792118
0.0794243
0.0796372
0.0798504
0.080064
0.0802779
0.0804923
0.080707
0.0809221
0.0811375
0.0813533
0.0815695
0.0817861
0.082003
0.0822203
0.082438
0.082656
0.0828744
0.0830932
0.0833124
0.0835319
0.0837518
0.0839721
0.0841928
0.0844138
0.0846352
0.084857
0.0850791
0.0853016
0.0855245
0.0857478
0.0859714
0.0861954
0.0864198
0.0866445
0.0868697
0.0870952
0.0873211
0.0875473
0.0877739
0.0880009
0.0882283
0.088456
0.0886841
0.0889126
0.0891415
0.0893707
0.0896003
0.0898303
0.0900607
0.0902914
0.0905225
0.090754
0.0909859
0.0912181
0.0914507
0.0916837
0.0919171
0.0921508
0.0923849
0.0926194
0.0928542
0.0930895
0.0933251
0.093561
0.0937974
0.0940341
0.0942712
0.0945087
0.0947466
0.0949848
0.0952234
0.0954624
0.0957017
0.0959415
0.0961816
0.0964221
0.0966629
0.0969041
0.0971458
0.0973877
0.0976301
0.0978728
0.0981159
0.0983594
0.0986033
0.0988475
0.0990921
0.0993371
0.0995825
0.0998282
0.100074
0.100321
0.100568
0.100815
0.101063
0.101311
0.101559
0.101808
0.102057
0.102306
0.102556
0.102806
0.103057
0.103308
0.103559
0.103811
0.104063
0.104316
0.104569
0.104822
0.105075
0.105329
0.105584
0.105839
0.106094
0.106349
0.106605
0.106861
0.107118
0.107375
0.107632
0.10789
0.108148
0.108407
0.108666
0.108925
0.109184
0.109444
0.109705
0.109966
0.110227
0.110488
0.11075
0.111012
0.111275
0.111538
0.111801
0.112065
0.112329
0.112594
0.112859
0.113124
0.113389
0.113655
0.113922
0.114189
0.114456
0.114723
0.114991
0.115259
0.115528
0.115797
0.116066
0.116336
0.116606
0.116877
0.117147
0.117419
0.11769
0.117962
0.118235
0.118507
0.11878
0.119054
0.119328
0.119602
0.119876
0.120151
0.120427
0.120702
0.120979
0.121255
0.121532
0.121809
0.122087
0.122364
0.122643
0.122921
0.123201
0.12348
0.12376
0.12404
0.12432
0.124601
0.124883
0.125164
0.125446
0.125729
0.126011
0.126295
0.126578
0.126862
0.127146
0.127431
0.127716
0.128001
0.128287
0.128573
0.128859
0.129146
0.129433
0.129721
0.130009
0.130297
0.130586
0.130875
0.131164
0.131454
0.131744
0.132035
0.132326
0.132617
0.132908
0.1332
0.133493
0.133785
0.134079
0.134372
0.134666
0.13496
0.135255
0.135549
0.135845
0.13614
0.136436
0.136733
0.137029
0.137327
0.137624
0.137922
0.13822
0.138519
0.138818
0.139117
0.139417
0.139717
0.140017
0.140318
0.140619
0.14092
0.141222
0.141524
0.141827
0.14213
0.142433
0.142737
0.143041
0.143345
0.14365
0.143955
0.144261
0.144566
0.144873
0.145179
0.145486
0.145793
0.146101
0.146409
0.146717
0.147026
0.147335
0.147644
0.147954
0.148264
0.148575
0.148886
0.149197
0.149509
0.149821
0.150133
0.150445
0.150759
0.151072
0.151386
0.1517
0.152014
0.152329
0.152644
0.15296
0.153275
0.153592
0.153908
0.154225
0.154543
0.15486
0.155178
0.155497
0.155815
0.156134
0.156454
0.156773
0.157094
0.157414
0.157735
0.158056
0.158378
0.158699
0.159022
0.159344
0.159667
0.159991
0.160314
0.160638
0.160963
0.161287
0.161612
0.161938
0.162263
0.16259
0.162916
0.163243
0.16357
0.163897
0.164225
0.164553
0.164882
0.165211
0.16554
0.16587
0.1662
0.16653
0.16686
0.167191
0.167523
0.167854
0.168186
0.168519
0.168851
0.169184
0.169518
0.169852
0.170186
0.17052
0.170855
0.17119
0.171525
0.171861
0.172197
0.172534
0.17287
0.173208
0.173545
0.173883
0.174221
0.17456
0.174898
0.175238
0.175577
0.175917
0.176257
0.176598
0.176939
0.17728
0.177621
0.177963
0.178306
0.178648
0.178991
0.179334
0.179678
0.180022
0.180366
0.180711
0.181055
0.181401
0.181746
0.182092
0.182438
0.182785
0.183132
0.183479
0.183827
0.184175
0.184523
0.184872
0.18522
0.18557
0.185919
0.186269
0.186619
0.18697
0.187321
0.187672
0.188024
0.188376
0.188728
0.18908
0.189433
0.189786
0.19014
0.190494
0.190848
0.191202
0.191557
0.191912
0.192268
0.192624
0.19298
0.193336
0.193693
0.19405
0.194408
0.194765
0.195123
0.195482
0.19584
0.196199
0.196559
0.196918
0.197278
0.197639
0.197999
0.19836
0.198722
0.199083
0.199445
0.199807
0.20017
0.200533
0.200896
0.201259
0.201623
0.201987
0.202352
0.202717
0.203082
0.203447
0.203813
0.204179
0.204545
0.204912
0.205279
0.205646
0.206014
0.206381
0.20675
0.207118
0.207487
0.207856
0.208226
0.208595
0.208965
0.209336
0.209707
0.210078
0.210449
0.21082
0.211192
0.211565
0.211937
0.21231
0.212683
0.213057
0.21343
0.213804
0.214179
0.214553
0.214928
0.215304
0.215679
0.216055
0.216431
0.216808
0.217185
0.217562
0.217939
0.218317
0.218695
0.219073
0.219452
0.219831
0.22021
0.220589
0.220969
0.221349
0.22173
0.22211
0.222491
0.222872
0.223254
0.223636
0.224018
0.2244
0.224783
0.225166
0.22555
0.225933
0.226317
0.226701
0.227086
0.227471
0.227856
0.228241
0.228627
0.229013
0.229399
0.229785
0.230172
0.230559
0.230947
0.231334
0.231722
0.232111
0.232499
0.232888
0.233277
0.233667
0.234056
0.234446
0.234836
0.235227
0.235618
0.236009
0.2364
0.236792
0.237184
0.237576
0.237969
0.238361
0.238755
0.239148
0.239542
0.239935
0.24033
0.240724
0.241119
0.241514
0.241909
0.242305
0.242701
0.243097
0.243493
0.24389
0.244287
0.244684
0.245081
0.245479
0.245877
0.246275
0.246674
0.247073
0.247472
0.247871
0.248271
0.248671
0.249071
0.249472
0.249872
0.250273
0.250675
0.251076
0.251478
0.25188
0.252282
0.252685
0.253088
0.253491
0.253894
0.254298
0.254702
0.255106
0.255511
0.255915
0.25632
0.256725
0.257131
0.257537
0.257943
0.258349
0.258755
0.259162
0.259569
0.259977
0.260384
0.260792
0.2612
0.261608
0.262017
0.262426
0.262835
0.263244
0.263654
0.264064
0.264474
0.264884
0.265295
0.265706
0.266117
0.266528
0.26694
0.267351
0.267764
0.268176
0.268589
0.269001
0.269414
0.269828
0.270241
0.270655
0.271069
0.271484
0.271898
0.272313
0.272728
0.273143
0.273559
0.273975
0.274391
0.274807
0.275224
0.27564
0.276057
0.276475
0.276892
0.27731
0.277728
0.278146
0.278564
0.278983
0.279402
0.279821
0.28024
0.28066
0.28108
0.2815
0.28192
0.282341
0.282761
0.283182
0.283604
0.284025
0.284447
0.284869
0.285291
0.285713
0.286136
0.286559
0.286982
0.287405
0.287829
0.288252
0.288676
0.289101
0.289525
0.28995
0.290375
0.2908
0.291225
0.291651
0.292076
0.292502
0.292929
0.293355
0.293782
0.294209
0.294636
0.295063
0.295491
0.295918
0.296346
0.296775
0.297203
0.297632
0.29806
0.298489
0.298919
0.299348
0.299778
0.300208
0.300638
0.301068
0.301499
0.30193
0.302361
0.302792
0.303223
0.303655
0.304087
0.304519
0.304951
0.305383
0.305816
0.306249
0.306682
0.307115
0.307549
0.307982
0.308416
0.30885
0.309285
0.309719
0.310154
0.310589
0.311024
0.311459
0.311895
0.31233
0.312766
0.313202
0.313639
0.314075
0.314512
0.314949
0.315386
0.315823
0.316261
0.316698
0.317136
0.317574
0.318013
0.318451
0.31889
0.319329
0.319768
0.320207
0.320646
0.321086
0.321526
0.321966
0.322406
0.322846
0.323287
0.323728
0.324169
0.32461
0.325051
0.325493
0.325934
0.326376
0.326818
0.32726
0.327703
0.328146
0.328588
0.329031
0.329474
0.329918
0.330361
0.330805
0.331249
0.331693
0.332137
0.332582
0.333026
0.333471
0.333916
0.334361
0.334806
0.335252
0.335697
0.336143
0.336589
0.337035
0.337482
0.337928
0.338375
0.338822
0.339269
0.339716
0.340163
0.340611
0.341059
0.341507
0.341955
0.342403
0.342851
0.3433
0.343748
0.344197
0.344646
0.345096
0.345545
0.345995
0.346444
0.346894
0.347344
0.347794
0.348245
0.348695
0.349146
0.349597
0.350048
0.350499
0.35095
0.351402
0.351853
0.352305
0.352757
0.353209
0.353661
0.354114
0.354566
0.355019
0.355472
0.355925
0.356378
0.356831
0.357285
0.357738
0.358192
0.358646
0.3591
0.359554
0.360009
0.360463
0.360918
0.361373
0.361828
0.362283
0.362738
0.363193
0.363649
0.364105
0.36456
0.365016
0.365473
0.365929
0.366385
0.366842
0.367298
0.367755
0.368212
0.368669
0.369127
0.369584
0.370041
0.370499
0.370957
0.371415
0.371873
0.372331
0.372789
0.373248
0.373706
0.374165
0.374624
0.375083
0.375542
0.376001
0.376461
0.37692
0.37738
0.37784
0.3783
0.37876
0.37922
0.37968
0.380141
0.380601
0.381062
0.381523
0.381984
0.382445
0.382906
0.383367
0.383829
0.38429
0.384752
0.385214
0.385675
0.386138
0.3866
0.387062
0.387524
0.387987
0.388449
0.388912
0.389375
0.389838
0.390301
0.390764
0.391228
0.391691
0.392155
0.392618
0.393082
0.393546
0.39401
0.394474
0.394938
0.395403
0.395867
0.396332
0.396796
0.397261
0.397726
0.398191
0.398656
0.399121
0.399587
0.400052
0.400518
0.400983
0.401449
0.401915
0.402381
0.402847
0.403313
0.403779
0.404246
0.404712
0.405179
0.405645
0.406112
0.406579
0.407046
0.407513
0.40798
0.408447
0.408915
0.409382
0.40985
0.410317
0.410785
0.411253
0.411721
0.412189
0.412657
0.413125
0.413594
0.414062
0.41453
0.414999
0.415468
0.415936
0.416405
0.416874
0.417343
0.417812
0.418282
0.418751
0.41922
0.41969
0.420159
0.420629
0.421099
0.421568
0.422038
0.422508
0.422978
0.423448
0.423919
0.424389
0.424859
0.42533
0.4258
0.426271
0.426741
0.427212
0.427683
0.428154
0.428625
0.429096
0.429567
0.430038
0.43051
0.430981
0.431453
0.431924
0.432396
0.432867
0.433339
0.433811
0.434283
0.434755
0.435227
0.435699
0.436171
0.436643
0.437116
0.437588
0.43806
0.438533
0.439005
0.439478
0.439951
0.440424
0.440896
0.441369
0.441842
0.442315
0.442788
0.443262
0.443735
0.444208
0.444681
0.445155
0.445628
0.446102
0.446575
0.447049
0.447523
0.447996
0.44847
0.448944
0.449418
0.449892
0.450366
0.45084
0.451314
0.451788
0.452263
0.452737
0.453211
0.453686
0.45416
0.454635
0.455109
0.455584
0.456059
0.456533
0.457008
0.457483
0.457958
0.458433
0.458908
0.459383
0.459858
0.460333
0.460808
0.461283
0.461758
0.462233
0.462709
0.463184
0.46366
0.464135
0.46461
0.465086
0.465562
0.466037
0.466513
0.466989
0.467464
0.46794
0.468416
0.468892
0.469368
0.469843
0.470319
0.470795
0.471271
0.471747
0.472224
0.4727
0.473176
0.473652
0.474128
0.474605
0.475081
0.475557
0.476034
0.47651
0.476986
0.477463
0.477939
0.478416
0.478892
0.479369
0.479845
0.480322
0.480799
0.481275
0.481752
0.482229
0.482705
0.483182
0.483659
0.484136
0.484613
0.48509
0.485566
0.486043
0.48652
0.486997
0.487474
0.487951
0.488428
0.488905
0.489382
0.489859
0.490336
0.490813
0.491291
0.491768
0.492245
0.492722
0.493199
0.493676
0.494154
0.494631
0.495108
0.495585
0.496063
0.49654
0.497017
0.497494
0.497972
0.498449
0.498926
0.499404
0.499881
0.500358
0.500836
0.501313
0.501791
0.502268
0.502745
0.503223
0.5037
0.504178
0.504655
0.505132
0.50561
0.506087
0.506565
0.507042
0.50752
0.507997
0.508474
0.508952
0.509429
0.509907
0.510384
0.510862
0.511339
0.511817
0.512294
0.512771
0.513249
0.513726
0.514204
0.514681
0.515159
0.515636
0.516113
0.516591
0.517068
0.517546
0.518023
0.5185
0.518978
0.519455
0.519932
0.52041
0.520887
0.521364
0.521842
0.522319
0.522796
0.523274
0.523751
0.524228
0.524705
0.525183
0.52566
0.526137
0.526614
0.527091
0.527569
0.528046
0.528523
0.529
0.529477
0.529954
0.530431
0.530908
0.531385
0.531862
0.532339
0.532816
0.533293
0.53377
0.534247
0.534724
0.535201
0.535678
0.536155
0.536631
0.537108
0.537585
0.538062
0.538538
0.539015
0.539492
0.539968
0.540445
0.540922
0.541398
0.541875
0.542351
0.542828
0.543304
0.543781
0.544257
0.544733
0.54521
0.545686
0.546162
0.546638
0.547115
0.547591
0.548067
0.548543
0.549019
0.549495
0.549971
0.550447
0.550923
0.551399
0.551875
0.552351
0.552827
0.553302
0.553778
0.554254
0.554729
0.555205
0.555681
0.556156
0.556632
0.557107
0.557583
0.558058
0.558533
0.559009
0.559484
0.559959
0.560434
0.56091
0.561385
0.56186
0.562335
0.56281
0.563285
0.56376
0.564234
0.564709
0.565184
0.565659
0.566133
0.566608
0.567082
0.567557
0.568031
0.568506
0.56898
0.569455
0.569929
0.570403
0.570877
0.571351
0.571825
0.572299
0.572773
0.573247
0.573721
0.574195
0.574669
0.575142
0.575616
0.57609
0.576563
0.577037
0.57751
0.577984
0.578457
0.57893
0.579403
0.579877
0.58035
0.580823
0.581296
0.581769
0.582242
0.582714
0.583187
0.58366
0.584132
0.584605
0.585078
0.58555
0.586022
0.586495
0.586967
0.587439
0.587911
0.588383
0.588855
0.589327
0.589799
0.590271
0.590743
0.591215
0.591686
0.592158
0.592629
0.593101
0.593572
0.594043
0.594515
0.594986
0.595457
0.595928
0.596399
0.59687
0.59734
0.597811
0.598282
0.598752
0.599223
0.599693
0.600164
0.600634
0.601104
0.601575
0.602045
0.602515
0.602985
0.603455
0.603924
0.604394
0.604864
0.605333
0.605803
0.606272
0.606742
0.607211
0.60768
0.608149
0.608618
0.609087
0.609556
0.610025
0.610494
0.610962
0.611431
0.611899
0.612368
0.612836
0.613305
0.613773
0.614241
0.614709
0.615177
0.615645
0.616112
0.61658
0.617048
0.617515
0.617983
0.61845
0.618917
0.619384
0.619851
0.620318
0.620785
0.621252
0.621719
0.622186
0.622652
0.623119
0.623585
0.624051
0.624518
0.624984
0.62545
0.625916
0.626382
0.626847
0.627313
0.627779
0.628244
0.62871
0.629175
0.62964
0.630105
0.63057
0.631035
0.6315
0.631965
0.63243
0.632894
0.633359
0.633823
0.634287
0.634752
0.635216
0.63568
0.636144
0.636608
0.637071
0.637535
0.637998
0.638462
0.638925
0.639388
0.639852
0.640315
0.640778
0.64124
0.641703
0.642166
0.642628
0.643091
0.643553
0.644015
0.644478
0.64494
0.645401
0.645863
0.646325
0.646787
0.647248
0.64771
0.648171
0.648632
0.649093
0.649554
0.650015
0.650476
0.650937
0.651397
0.651858
0.652318
0.652778
0.653239
0.653699
0.654159
0.654618
0.655078
0.655538
0.655997
0.656457
0.656916
0.657375
0.657834
0.658293
0.658752
0.659211
0.65967
0.660128
0.660587
0.661045
0.661503
0.661961
0.662419
0.662877
0.663335
0.663792
0.66425
0.664707
0.665165
0.665622
0.666079
0.666536
0.666993
0.66745
0.667906
0.668363
0.668819
0.669275
0.669731
0.670187
0.670643
0.671099
0.671555
0.67201
0.672466
0.672921
0.673376
0.673832
0.674286
0.674741
0.675196
0.675651
0.676105
0.67656
0.677014
0.677468
0.677922
0.678376
0.67883
0.679283
0.679737
0.68019
0.680644
0.681097
0.68155
0.682003
0.682455
0.682908
0.683361
0.683813
0.684265
0.684718
0.68517
0.685622
0.686073
0.686525
0.686977
0.687428
0.687879
0.68833
0.688781
0.689232
0.689683
0.690134
0.690584
0.691035
0.691485
0.691935
0.692385
0.692835
0.693285
0.693734
0.694184
0.694633
0.695083
0.695532
0.695981
0.696429
0.696878
0.697327
0.697775
0.698224
0.698672
0.69912
0.699568
0.700016
0.700463
0.700911
0.701358
0.701805
0.702252
0.702699
0.703146
0.703593
0.70404
0.704486
0.704932
0.705379
0.705825
0.706271
0.706716
0.707162
0.707607
0.708053
0.708498
0.708943
0.709388
0.709833
0.710278
0.710722
0.711167
0.711611
0.712055
0.712499
0.712943
0.713386
0.71383
0.714273
0.714717
0.71516
0.715603
0.716046
0.716488
0.716931
0.717374
0.717816
0.718258
0.7187
0.719142
0.719584
0.720025
0.720467
0.720908
0.721349
0.72179
0.722231
0.722672
0.723112
0.723553
0.723993
0.724433
0.724873
0.725313
0.725753
0.726192
0.726632
0.727071
0.72751
0.727949
0.728388
0.728827
0.729265
0.729704
0.730142
0.73058
0.731018
0.731456
0.731894
0.732331
0.732768
0.733206
0.733643
0.73408
0.734516
0.734953
0.73539
0.735826
0.736262
0.736698
0.737134
0.73757
0.738005
0.738441
0.738876
0.739311
0.739746
0.740181
0.740616
0.74105
0.741484
0.741919
0.742353
0.742787
0.74322
0.743654
0.744087
0.744521
0.744954
0.745387
0.74582
0.746252
0.746685
0.747117
0.747549
0.747981
0.748413
0.748845
0.749277
0.749708
0.750139
0.750571
0.751002
0.751432
0.751863
0.752293
0.752724
0.753154
0.753584
0.754014
0.754444
0.754873
0.755303
0.755732
0.756161
0.75659
0.757019
0.757447
0.757876
0.758304
0.758732
0.75916
0.759588
0.760016
0.760443
0.76087
0.761297
0.761725
0.762151
0.762578
0.763005
0.763431
0.763857
0.764283
0.764709
0.765135
0.76556
0.765986
0.766411
0.766836
0.767261
0.767686
0.76811
0.768535
0.768959
0.769383
0.769807
0.770231
0.770654
0.771078
0.771501
0.771924
0.772347
0.77277
0.773193
0.773615
0.774037
0.774459
0.774881
0.775303
0.775725
0.776146
0.776568
0.776989
0.77741
0.777831
0.778251
0.778672
0.779092
0.779512
0.779932
0.780352
0.780771
0.781191
0.78161
0.782029
0.782448
0.782867
0.783286
0.783704
0.784122
0.784541
0.784959
0.785376
0.785794
0.786211
0.786629
0.787046
0.787463
0.787879
0.788296
0.788713
0.789129
0.789545
0.789961
0.790377
0.790792
0.791207
0.791623
0.792038
0.792453
0.792867
0.793282
0.793696
0.794111
0.794525
0.794938
0.795352
0.795766
0.796179
0.796592
0.797005
0.797418
0.797831
0.798243
0.798655
0.799068
0.799479
0.799891
0.800303
0.800714
0.801126
0.801537
0.801948
0.802358
0.802769
0.803179
0.80359
0.804
0.804409
0.804819
0.805229
0.805638
0.806047
0.806456
0.806865
0.807274
0.807682
0.80809
0.808499
0.808906
0.809314
0.809722
0.810129
0.810536
0.810943
0.81135
0.811757
0.812164
0.81257
0.812976
0.813382
0.813788
0.814194
0.814599
0.815004
0.815409
0.815814
0.816219
0.816624
0.817028
0.817432
0.817836
0.81824
0.818644
0.819047
0.819451
0.819854
0.820257
0.82066
0.821062
0.821465
0.821867
0.822269
0.822671
0.823072
0.823474
0.823875
0.824276
0.824677
0.825078
0.825479
0.825879
0.82628
0.82668
0.82708
0.827479
0.827879
0.828278
0.828677
0.829076
0.829475
0.829874
0.830272
0.83067
0.831069
0.831466
0.831864
0.832262
0.832659
0.833056
0.833453
0.83385
0.834247
0.834643
0.835039
0.835435
0.835831
0.836227
0.836622
0.837018
0.837413
0.837808
0.838203
0.838597
0.838992
0.839386
0.83978
0.840174
0.840568
0.840961
0.841354
0.841748
0.84214
0.842533
0.842926
0.843318
0.84371
0.844102
0.844494
0.844886
0.845277
0.845669
0.84606
0.846451
0.846841
0.847232
0.847622
0.848012
0.848402
0.848792
0.849182
0.849571
0.849961
0.85035
0.850738
0.851127
0.851516
0.851904
0.852292
0.85268
0.853068
0.853455
0.853843
0.85423
0.854617
0.855004
0.85539
0.855777
0.856163
0.856549
0.856935
0.857321
0.857706
0.858091
0.858476
0.858861
0.859246
0.859631
0.860015
0.860399
0.860783
0.861167
0.861551
0.861934
0.862317
0.8627
0.863083
0.863466
0.863848
0.864231
0.864613
0.864995
0.865377
0.865758
0.866139
0.866521
0.866902
0.867282
0.867663
0.868043
0.868424
0.868804
0.869183
0.869563
0.869943
0.870322
0.870701
0.87108
0.871458
0.871837
0.872215
0.872593
0.872971
0.873349
0.873727
0.874104
0.874481
0.874858
0.875235
0.875612
0.875988
0.876364
0.87674
0.877116
0.877492
0.877867
0.878242
0.878618
0.878992
0.879367
0.879742
0.880116
0.88049
0.880864
0.881238
0.881611
0.881985
0.882358
0.882731
0.883104
0.883476
0.883849
0.884221
0.884593
0.884965
0.885336
0.885708
0.886079
0.88645
0.886821
0.887191
0.887562
0.887932
0.888302
0.888672
0.889042
0.889411
0.889781
0.89015
0.890519
0.890888
0.891256
0.891625
0.891993
0.892361
0.892728
0.893096
0.893463
0.893831
0.894198
0.894564
0.894931
0.895297
0.895664
0.89603
0.896396
0.896761
0.897127
0.897492
0.897857
0.898222
0.898587
0.898951
0.899315
0.89968
0.900043
0.900407
0.900771
0.901134
0.901497
0.90186
0.902223
0.902585
0.902948
0.90331
0.903672
0.904034
0.904395
0.904757
0.905118
0.905479
0.90584
0.9062
0.906561
0.906921
0.907281
0.907641
0.908001
0.90836
0.908719
0.909078
0.909437
0.909796
0.910154
0.910513
0.910871
0.911229
0.911586
0.911944
0.912301
0.912658
0.913015
0.913372
0.913729
0.914085
0.914441
0.914797
0.915153
0.915508
0.915864
0.916219
0.916574
0.916929
0.917283
0.917638
0.917992
0.918346
0.9187
0.919053
0.919407
0.91976
0.920113
0.920466
0.920818
0.921171
0.921523
0.921875
0.922227
0.922579
0.92293
0.923281
0.923632
0.923983
0.924334
0.924684
0.925035
0.925385
0.925735
0.926084
0.926434
0.926783
0.927132
0.927481
0.92783
0.928179
0.928527
0.928875
0.929223
0.929571
0.929918
0.930266
0.930613
0.93096
0.931307
0.931653
0.932
0.932346
0.932692
0.933037
0.933383
0.933729
0.934074
0.934419
0.934764
0.935108
0.935453
0.935797
0.936141
0.936485
0.936828
0.937172
0.937515
0.937858
0.938201
0.938544
0.938886
0.939228
0.93957
0.939912
0.940254
0.940596
0.940937
0.941278
0.941619
0.94196
0.9423
0.94264
0.94298
0.94332
0.94366
0.944
0.944339
0.944678
0.945017
0.945356
0.945694
0.946033
0.946371
0.946709
0.947047
0.947384
0.947722
0.948059
0.948396
0.948733
0.949069
0.949406
0.949742
0.950078
0.950414
0.950749
0.951085
0.95142
0.951755
0.95209
0.952424
0.952759
0.953093
0.953427
0.953761
0.954095
0.954428
0.954761
0.955094
0.955427
0.95576
0.956092
0.956425
0.956757
0.957089
0.95742
0.957752
0.958083
0.958414
0.958745
0.959076
0.959406
0.959737
0.960067
0.960397
0.960727
0.961056
0.961386
0.961715
0.962044
0.962372
0.962701
0.963029
0.963358
0.963686
0.964013
0.964341
0.964668
0.964996
0.965323
0.965649
0.965976
0.966302
0.966629
0.966955
0.96728
0.967606
0.967932
0.968257
0.968582
0.968907
0.969231
0.969556
0.96988
0.970204
0.970528
0.970852
0.971175
0.971499
0.971822
0.972145
0.972467
0.97279
0.973112
0.973434
0.973756
0.974078
0.974399
0.974721
0.975042
0.975363
0.975684
0.976004
0.976325
0.976645
0.976965
0.977285
0.977604
0.977924
0.978243
0.978562
0.978881
0.979199
0.979518
0.979836
0.980154
0.980472
0.980789
0.981107
0.981424
0.981741
0.982058
0.982375
0.982691
0.983007
0.983324
0.983639
0.983955
0.984271
0.984586
0.984901
0.985216
0.985531
0.985845
0.98616
0.986474
0.986788
0.987101
0.987415
0.987728
0.988042
0.988355
0.988667
0.98898
0.989292
0.989605
0.989917
0.990228
0.99054
0.990851
0.991163
0.991474
0.991785
0.992095
0.992406
0.992716
0.993026
0.993336
0.993646
0.993955
0.994264
0.994574
0.994882
0.995191
0.9955
0.995808
0.996116
0.996424
0.996732
0.997039
0.997347
0.997654
0.997961
0.998268
0.998574
0.998881
0.999187
0.999493
0.999799
1.0001
1.00041
1.00072
1.00102
1.00133
1.00163
1.00193
1.00224
1.00254
1.00285
1.00315
1.00345
1.00376
1.00406
1.00436
1.00467
1.00497
1.00527
1.00557
1.00587
1.00618
1.00648
1.00678
1.00708
1.00738
1.00768
1.00798
1.00828
1.00858
1.00888
1.00918
1.00948
1.00978
1.01008
1.01038
1.01068
1.01098
1.01128
1.01158
1.01187
1.01217
1.01247
1.01277
1.01306
1.01336
1.01366
1.01396
1.01425
1.01455
1.01485
1.01514
1.01544
1.01573
1.01603
1.01632
1.01662
1.01691
1.01721
1.0175
1.0178
1.01809
1.01838
1.01868
1.01897
1.01927
1.01956
1.01985
1.02014
1.02044
1.02073
1.02102
1.02131
1.02161
1.0219
1.02219
1.02248
1.02277
1.02306
1.02335
1.02364
1.02393
1.02422
1.02451
1.0248
1.02509
1.02538
1.02567
1.02596
1.02625
1.02654
1.02683
1.02711
1.0274
1.02769
1.02798
1.02827
1.02855
1.02884
1.02913
1.02941
1.0297
1.02999
1.03027
1.03056
1.03084
1.03113
1.03142
1.0317
1.03199
1.03227
1.03256
1.03284
1.03312
1.03341
1.03369
1.03398
1.03426
1.03454
1.03483
1.03511
1.03539
1.03567
1.03596
1.03624
1.03652
1.0368
1.03708
1.03737
1.03765
1.03793
1.03821
1.03849
1.03877
1.03905
1.03933
1.03961
1.03989
1.04017
1.04045
1.04073
1.04101
1.04129
1.04157
1.04184
1.04212
1.0424
1.04268
1.04296
1.04323
1.04351
1.04379
1.04407
1.04434
1.04462
1.0449
1.04517
1.04545
1.04572
1.046
1.04628
1.04655
1.04683
1.0471
1.04738
1.04765
1.04792
1.0482
1.04847
1.04875
1.04902
1.04929
1.04957
1.04984
1.05011
1.05039
1.05066
1.05093
1.0512
1.05147
1.05175
1.05202
1.05229
1.05256
1.05283
1.0531
1.05337
1.05364
1.05391
1.05418
1.05445
1.05472
1.05499
1.05526
1.05553
1.0558
1.05607
1.05634
1.05661
1.05688
1.05714
1.05741
1.05768
1.05795
1.05822
1.05848
1.05875
1.05902
1.05928
1.05955
1.05982
1.06008
1.06035
1.06061
1.06088
1.06114
1.06141
1.06167
1.06194
1.0622
1.06247
1.06273
1.063
1.06326
1.06353
1.06379
1.06405
1.06432
1.06458
1.06484
1.0651
1.06537
1.06563
1.06589
1.06615
1.06641
1.06668
1.06694
1.0672
1.06746
1.06772
1.06798
1.06824
1.0685
1.06876
1.06902
1.06928
1.06954
1.0698
1.07006
1.07032
1.07058
1.07084
1.0711
1.07135
1.07161
1.07187
1.07213
1.07239
1.07264
1.0729
1.07316
1.07341
1.07367
1.07393
1.07418
1.07444
1.0747
1.07495
1.07521
1.07546
1.07572
1.07597
1.07623
1.07648
1.07674
1.07699
1.07725
1.0775
1.07775
1.07801
1.07826
1.07852
1.07877
1.07902
1.07927
1.07953
1.07978
1.08003
1.08028
1.08054
1.08079
1.08104
1.08129
1.08154
1.08179
1.08204
1.08229
1.08254
1.08279
1.08305
1.0833
1.08354
1.08379
1.08404
1.08429
1.08454
1.08479
1.08504
1.08529
1.08554
1.08579
1.08603
1.08628
1.08653
1.08678
1.08702
1.08727
1.08752
1.08776
1.08801
1.08826
1.0885
1.08875
1.089
1.08924
1.08949
1.08973
1.08998
1.09022
1.09047
1.09071
1.09096
1.0912
1.09145
1.09169
1.09193
1.09218
1.09242
1.09266
1.09291
1.09315
1.09339
1.09364
1.09388
1.09412
1.09436
1.0946
1.09485
1.09509
1.09533
1.09557
1.09581
1.09605
1.09629
1.09653
1.09677
1.09701
1.09725
1.09749
1.09773
1.09797
1.09821
1.09845
1.09869
1.09893
1.09917
1.09941
1.09965
1.09988
1.10012
1.10036
1.1006
1.10083
1.10107
1.10131
1.10155
1.10178
1.10202
1.10226
1.10249
1.10273
1.10296
1.1032
1.10344
1.10367
1.10391
1.10414
1.10438
1.10461
1.10485
1.10508
1.10531
1.10555
1.10578
1.10602
1.10625
1.10648
1.10672
1.10695
1.10718
1.10741
1.10765
1.10788
1.10811
1.10834
1.10858
1.10881
1.10904
1.10927
1.1095
1.10973
1.10996
1.11019
1.11042
1.11065
1.11088
1.11111
1.11134
1.11157
1.1118
1.11203
1.11226
1.11249
1.11272
1.11295
1.11318
1.11341
1.11363
1.11386
1.11409
1.11432
1.11455
1.11477
1.115
1.11523
1.11545
1.11568
1.11591
1.11613
1.11636
1.11659
1.11681
1.11704
1.11726
1.11749
1.11771
1.11794
1.11816
1.11839
1.11861
1.11884
1.11906
1.11928
1.11951
1.11973
1.11996
1.12018
1.1204
1.12062
1.12085
1.12107
1.12129
1.12152
1.12174
1.12196
1.12218
1.1224
1.12262
1.12285
1.12307
1.12329
1.12351
1.12373
1.12395
1.12417
1.12439
1.12461
1.12483
1.12505
1.12527
1.12549
1.12571
1.12593
1.12615
1.12637
1.12658
1.1268
1.12702
1.12724
1.12746
1.12768
1.12789
1.12811
1.12833
1.12855
1.12876
1.12898
1.1292
1.12941
1.12963
1.12984
1.13006
1.13028
1.13049
1.13071
1.13092
1.13114
1.13135
1.13157
1.13178
1.132
1.13221
1.13243
1.13264
1.13285
1.13307
1.13328
1.1335
1.13371
1.13392
1.13414
1.13435
1.13456
1.13477
1.13499
1.1352
1.13541
1.13562
1.13583
1.13604
1.13626
1.13647
1.13668
1.13689
1.1371
1.13731
1.13752
1.13773
1.13794
1.13815
1.13836
1.13857
1.13878
1.13899
1.1392
1.13941
1.13962
1.13983
1.14003
1.14024
1.14045
1.14066
1.14087
1.14107
1.14128
1.14149
1.1417
1.1419
1.14211
1.14232
1.14252
1.14273
1.14294
1.14314
1.14335
1.14356
1.14376
1.14397
1.14417
1.14438
1.14458
1.14479
1.14499
1.1452
1.1454
1.14561
1.14581
1.14601
1.14622
1.14642
1.14663
1.14683
1.14703
1.14724
1.14744
1.14764
1.14784
1.14805
1.14825
1.14845
1.14865
1.14886
1.14906
1.14926
1.14946
1.14966
1.14986
1.15006
1.15026
1.15046
1.15067
1.15087
1.15107
1.15127
1.15147
1.15167
1.15186
1.15206
1.15226
1.15246
1.15266
1.15286
1.15306
1.15326
1.15346
1.15365
1.15385
1.15405
1.15425
1.15445
1.15464
1.15484
1.15504
1.15523
1.15543
1.15563
1.15582
1.15602
1.15622
1.15641
1.15661
1.15681
1.157
1.1572
1.15739
1.15759
1.15778
1.15798
1.15817
1.15837
1.15856
1.15875
1.15895
1.15914
1.15934
1.15953
1.15972
1.15992
1.16011
1.1603
1.1605
1.16069
1.16088
1.16107
1.16127
1.16146
1.16165
1.16184
1.16204
1.16223
1.16242
1.16261
1.1628
1.16299
1.16318
1.16337
1.16356
1.16375
1.16394
1.16414
1.16433
1.16452
1.1647
1.16489
1.16508
1.16527
1.16546
1.16565
1.16584
1.16603
1.16622
1.16641
1.16659
1.16678
1.16697
1.16716
1.16735
1.16753
1.16772
1.16791
1.16809
1.16828
1.16847
1.16865
1.16884
1.16903
1.16921
1.1694
1.16959
1.16977
1.16996
1.17014
1.17033
1.17051
1.1707
1.17088
1.17107
1.17125
1.17144
1.17162
1.17181
1.17199
1.17217
1.17236
1.17254
1.17272
1.17291
1.17309
1.17327
1.17346
1.17364
1.17382
1.17401
1.17419
1.17437
1.17455
1.17473
1.17492
1.1751
1.17528
1.17546
1.17564
1.17582
1.176
1.17618
1.17636
1.17654
1.17673
1.17691
1.17709
1.17727
1.17745
1.17763
1.1778
1.17798
1.17816
1.17834
1.17852
1.1787
1.17888
1.17906
1.17924
1.17941
1.17959
1.17977
1.17995
1.18013
1.1803
1.18048
1.18066
1.18083
1.18101
1.18119
1.18137
1.18154
1.18172
1.18189
1.18207
1.18225
1.18242
1.1826
1.18277
1.18295
1.18312
1.1833
1.18347
1.18365
1.18382
)
;

boundaryField
{
    bottom
    {
        type            calculated;
        value           uniform 0.0591956;
    }
    top
    {
        type            calculated;
        value           uniform 1.18391;
    }
    sidesX
    {
        type            empty;
    }
    sidesY
    {
        type            empty;
    }
}


// ************************************************************************* //
