/*--------------------------------*- C++ -*----------------------------------*\
| =========                 |                                                 |
| \\      /  F ield         | OpenFOAM: The Open Source CFD Toolbox           |
|  \\    /   O peration     | Version:  v2012                                 |
|   \\  /    A nd           | Website:  www.openfoam.com                      |
|    \\/     M anipulation  |                                                 |
\*---------------------------------------------------------------------------*/
FoamFile
{
    version     2.0;
    format      ascii;
    class       volScalarField;
    location    "48.5";
    object      wb;
}
// * * * * * * * * * * * * * * * * * * * * * * * * * * * * * * * * * * * * * //

dimensions      [0 0 0 0 0 0 0];


internalField   nonuniform List<scalar> 
3200
(
0.0500738
0.0502217
0.05037
0.0505185
0.0506673
0.0508165
0.0509659
0.0511156
0.0512657
0.051416
0.0515666
0.0517176
0.0518688
0.0520203
0.0521722
0.0523243
0.0524767
0.0526295
0.0527825
0.0529358
0.0530895
0.0532434
0.0533976
0.0535522
0.053707
0.0538622
0.0540176
0.0541734
0.0543294
0.0544858
0.0546424
0.0547994
0.0549566
0.0551142
0.0552721
0.0554303
0.0555887
0.0557475
0.0559066
0.056066
0.0562257
0.0563857
0.056546
0.0567066
0.0568675
0.0570288
0.0571903
0.0573521
0.0575143
0.0576767
0.0578395
0.0580025
0.0581659
0.0583296
0.0584935
0.0586578
0.0588224
0.0589873
0.0591525
0.059318
0.0594838
0.05965
0.0598164
0.0599831
0.0601502
0.0603176
0.0604852
0.0606532
0.0608215
0.0609901
0.061159
0.0613282
0.0614977
0.0616676
0.0618377
0.0620081
0.0621789
0.06235
0.0625213
0.062693
0.062865
0.0630373
0.06321
0.0633829
0.0635561
0.0637297
0.0639035
0.0640777
0.0642522
0.064427
0.0646021
0.0647775
0.0649532
0.0651293
0.0653056
0.0654823
0.0656593
0.0658366
0.0660142
0.0661921
0.0663703
0.0665488
0.0667277
0.0669069
0.0670863
0.0672661
0.0674462
0.0676266
0.0678074
0.0679884
0.0681697
0.0683514
0.0685334
0.0687157
0.0688983
0.0690812
0.0692644
0.069448
0.0696319
0.069816
0.0700005
0.0701853
0.0703704
0.0705559
0.0707416
0.0709277
0.0711141
0.0713007
0.0714877
0.0716751
0.0718627
0.0720506
0.0722389
0.0724275
0.0726164
0.0728056
0.0729951
0.073185
0.0733751
0.0735656
0.0737564
0.0739475
0.0741389
0.0743306
0.0745227
0.074715
0.0749077
0.0751007
0.075294
0.0754876
0.0756816
0.0758758
0.0760704
0.0762653
0.0764605
0.076656
0.0768519
0.077048
0.0772445
0.0774413
0.0776384
0.0778358
0.0780336
0.0782316
0.07843
0.0786287
0.0788277
0.079027
0.0792267
0.0794266
0.0796269
0.0798275
0.0800284
0.0802296
0.0804311
0.080633
0.0808352
0.0810377
0.0812405
0.0814436
0.081647
0.0818508
0.0820549
0.0822593
0.082464
0.082669
0.0828743
0.08308
0.083286
0.0834923
0.0836989
0.0839058
0.0841131
0.0843206
0.0845285
0.0847367
0.0849452
0.0851541
0.0853632
0.0855727
0.0857825
0.0859926
0.086203
0.0864137
0.0866248
0.0868362
0.0870478
0.0872598
0.0874722
0.0876848
0.0878978
0.088111
0.0883246
0.0885385
0.0887528
0.0889673
0.0891822
0.0893973
0.0896128
0.0898286
0.0900448
0.0902612
0.090478
0.0906951
0.0909125
0.0911302
0.0913482
0.0915665
0.0917852
0.0920042
0.0922235
0.0924431
0.092663
0.0928833
0.0931038
0.0933247
0.0935459
0.0937674
0.0939892
0.0942114
0.0944338
0.0946566
0.0948797
0.0951031
0.0953269
0.0955509
0.0957753
0.0959999
0.0962249
0.0964502
0.0966759
0.0969018
0.097128
0.0973546
0.0975815
0.0978087
0.0980362
0.0982641
0.0984922
0.0987207
0.0989494
0.0991785
0.0994079
0.0996377
0.0998677
0.100098
0.100329
0.10056
0.100791
0.101023
0.101255
0.101487
0.101719
0.101952
0.102185
0.102419
0.102653
0.102887
0.103121
0.103356
0.103591
0.103827
0.104062
0.104298
0.104535
0.104771
0.105008
0.105245
0.105483
0.105721
0.105959
0.106198
0.106436
0.106676
0.106915
0.107155
0.107395
0.107635
0.107876
0.108117
0.108358
0.1086
0.108842
0.109084
0.109327
0.10957
0.109813
0.110056
0.1103
0.110544
0.110789
0.111034
0.111279
0.111524
0.11177
0.112016
0.112262
0.112509
0.112756
0.113003
0.11325
0.113498
0.113746
0.113995
0.114244
0.114493
0.114742
0.114992
0.115242
0.115492
0.115743
0.115994
0.116245
0.116497
0.116749
0.117001
0.117253
0.117506
0.117759
0.118013
0.118266
0.11852
0.118775
0.119029
0.119284
0.11954
0.119795
0.120051
0.120307
0.120564
0.120821
0.121078
0.121335
0.121593
0.121851
0.122109
0.122368
0.122627
0.122886
0.123145
0.123405
0.123665
0.123926
0.124187
0.124448
0.124709
0.124971
0.125233
0.125495
0.125757
0.12602
0.126284
0.126547
0.126811
0.127075
0.127339
0.127604
0.127869
0.128134
0.1284
0.128666
0.128932
0.129198
0.129465
0.129732
0.13
0.130267
0.130535
0.130804
0.131072
0.131341
0.13161
0.13188
0.13215
0.13242
0.13269
0.132961
0.133232
0.133503
0.133775
0.134047
0.134319
0.134591
0.134864
0.135137
0.135411
0.135684
0.135958
0.136232
0.136507
0.136782
0.137057
0.137332
0.137608
0.137884
0.138161
0.138437
0.138714
0.138991
0.139269
0.139547
0.139825
0.140103
0.140382
0.140661
0.14094
0.141219
0.141499
0.141779
0.14206
0.142341
0.142622
0.142903
0.143184
0.143466
0.143748
0.144031
0.144314
0.144597
0.14488
0.145164
0.145448
0.145732
0.146016
0.146301
0.146586
0.146871
0.147157
0.147443
0.147729
0.148016
0.148302
0.14859
0.148877
0.149165
0.149452
0.149741
0.150029
0.150318
0.150607
0.150896
0.151186
0.151476
0.151766
0.152057
0.152347
0.152638
0.15293
0.153221
0.153513
0.153806
0.154098
0.154391
0.154684
0.154977
0.155271
0.155565
0.155859
0.156153
0.156448
0.156743
0.157038
0.157334
0.157629
0.157926
0.158222
0.158519
0.158816
0.159113
0.15941
0.159708
0.160006
0.160304
0.160603
0.160902
0.161201
0.161501
0.1618
0.1621
0.1624
0.162701
0.163002
0.163303
0.163604
0.163906
0.164208
0.16451
0.164812
0.165115
0.165418
0.165721
0.166025
0.166329
0.166633
0.166937
0.167242
0.167547
0.167852
0.168157
0.168463
0.168769
0.169075
0.169381
0.169688
0.169995
0.170303
0.17061
0.170918
0.171226
0.171534
0.171843
0.172152
0.172461
0.172771
0.17308
0.17339
0.1737
0.174011
0.174322
0.174633
0.174944
0.175255
0.175567
0.175879
0.176192
0.176504
0.176817
0.17713
0.177444
0.177757
0.178071
0.178385
0.1787
0.179014
0.179329
0.179644
0.17996
0.180276
0.180591
0.180908
0.181224
0.181541
0.181858
0.182175
0.182493
0.18281
0.183128
0.183447
0.183765
0.184084
0.184403
0.184722
0.185042
0.185361
0.185682
0.186002
0.186322
0.186643
0.186964
0.187285
0.187607
0.187929
0.188251
0.188573
0.188896
0.189218
0.189542
0.189865
0.190188
0.190512
0.190836
0.19116
0.191485
0.19181
0.192135
0.19246
0.192786
0.193111
0.193437
0.193764
0.19409
0.194417
0.194744
0.195071
0.195398
0.195726
0.196054
0.196382
0.196711
0.197039
0.197368
0.197697
0.198027
0.198356
0.198686
0.199016
0.199347
0.199677
0.200008
0.200339
0.20067
0.201002
0.201334
0.201666
0.201998
0.202331
0.202663
0.202996
0.203329
0.203663
0.203996
0.20433
0.204664
0.204999
0.205333
0.205668
0.206003
0.206339
0.206674
0.20701
0.207346
0.207682
0.208018
0.208355
0.208692
0.209029
0.209366
0.209704
0.210042
0.21038
0.210718
0.211057
0.211395
0.211734
0.212073
0.212413
0.212752
0.213092
0.213432
0.213772
0.214113
0.214454
0.214795
0.215136
0.215477
0.215819
0.216161
0.216503
0.216845
0.217188
0.21753
0.217873
0.218216
0.21856
0.218903
0.219247
0.219591
0.219935
0.22028
0.220625
0.220969
0.221315
0.22166
0.222005
0.222351
0.222697
0.223043
0.22339
0.223736
0.224083
0.22443
0.224777
0.225125
0.225473
0.22582
0.226168
0.226517
0.226865
0.227214
0.227563
0.227912
0.228261
0.228611
0.228961
0.229311
0.229661
0.230011
0.230362
0.230713
0.231064
0.231415
0.231766
0.232118
0.23247
0.232822
0.233174
0.233526
0.233879
0.234232
0.234585
0.234938
0.235291
0.235645
0.235999
0.236353
0.236707
0.237061
0.237416
0.237771
0.238126
0.238481
0.238837
0.239192
0.239548
0.239904
0.24026
0.240617
0.240973
0.24133
0.241687
0.242044
0.242401
0.242759
0.243117
0.243475
0.243833
0.244191
0.24455
0.244908
0.245267
0.245626
0.245985
0.246345
0.246704
0.247064
0.247424
0.247785
0.248145
0.248505
0.248866
0.249227
0.249588
0.24995
0.250311
0.250673
0.251035
0.251397
0.251759
0.252121
0.252484
0.252847
0.25321
0.253573
0.253936
0.2543
0.254663
0.255027
0.255391
0.255755
0.25612
0.256484
0.256849
0.257214
0.257579
0.257944
0.25831
0.258675
0.259041
0.259407
0.259773
0.26014
0.260506
0.260873
0.26124
0.261607
0.261974
0.262341
0.262709
0.263076
0.263444
0.263812
0.26418
0.264549
0.264917
0.265286
0.265655
0.266024
0.266393
0.266762
0.267132
0.267502
0.267872
0.268242
0.268612
0.268982
0.269353
0.269723
0.270094
0.270465
0.270836
0.271208
0.271579
0.271951
0.272323
0.272695
0.273067
0.273439
0.273811
0.274184
0.274557
0.27493
0.275303
0.275676
0.276049
0.276423
0.276797
0.277171
0.277545
0.277919
0.278293
0.278667
0.279042
0.279417
0.279792
0.280167
0.280542
0.280917
0.281293
0.281669
0.282045
0.28242
0.282797
0.283173
0.283549
0.283926
0.284303
0.284679
0.285056
0.285434
0.285811
0.286188
0.286566
0.286944
0.287322
0.2877
0.288078
0.288456
0.288834
0.289213
0.289592
0.289971
0.29035
0.290729
0.291108
0.291488
0.291867
0.292247
0.292627
0.293007
0.293387
0.293767
0.294147
0.294528
0.294909
0.295289
0.29567
0.296051
0.296433
0.296814
0.297195
0.297577
0.297959
0.298341
0.298723
0.299105
0.299487
0.299869
0.300252
0.300634
0.301017
0.3014
0.301783
0.302166
0.30255
0.302933
0.303317
0.3037
0.304084
0.304468
0.304852
0.305236
0.30562
0.306005
0.306389
0.306774
0.307159
0.307544
0.307929
0.308314
0.308699
0.309084
0.30947
0.309856
0.310241
0.310627
0.311013
0.311399
0.311785
0.312172
0.312558
0.312945
0.313331
0.313718
0.314105
0.314492
0.314879
0.315267
0.315654
0.316041
0.316429
0.316817
0.317204
0.317592
0.31798
0.318369
0.318757
0.319145
0.319534
0.319922
0.320311
0.3207
0.321089
0.321478
0.321867
0.322256
0.322645
0.323035
0.323424
0.323814
0.324204
0.324593
0.324983
0.325373
0.325764
0.326154
0.326544
0.326935
0.327325
0.327716
0.328107
0.328498
0.328889
0.32928
0.329671
0.330062
0.330453
0.330845
0.331236
0.331628
0.33202
0.332412
0.332803
0.333196
0.333588
0.33398
0.334372
0.334765
0.335157
0.33555
0.335942
0.336335
0.336728
0.337121
0.337514
0.337907
0.3383
0.338694
0.339087
0.33948
0.339874
0.340268
0.340661
0.341055
0.341449
0.341843
0.342237
0.342631
0.343026
0.34342
0.343814
0.344209
0.344604
0.344998
0.345393
0.345788
0.346183
0.346578
0.346973
0.347368
0.347763
0.348158
0.348554
0.348949
0.349345
0.349741
0.350136
0.350532
0.350928
0.351324
0.35172
0.352116
0.352512
0.352908
0.353305
0.353701
0.354097
0.354494
0.354891
0.355287
0.355684
0.356081
0.356478
0.356875
0.357272
0.357669
0.358066
0.358463
0.35886
0.359258
0.359655
0.360053
0.36045
0.360848
0.361246
0.361643
0.362041
0.362439
0.362837
0.363235
0.363633
0.364031
0.36443
0.364828
0.365226
0.365625
0.366023
0.366422
0.36682
0.367219
0.367617
0.368016
0.368415
0.368814
0.369213
0.369612
0.370011
0.37041
0.370809
0.371208
0.371608
0.372007
0.372406
0.372806
0.373205
0.373605
0.374004
0.374404
0.374804
0.375204
0.375603
0.376003
0.376403
0.376803
0.377203
0.377603
0.378003
0.378403
0.378804
0.379204
0.379604
0.380005
0.380405
0.380805
0.381206
0.381606
0.382007
0.382408
0.382808
0.383209
0.38361
0.384011
0.384411
0.384812
0.385213
0.385614
0.386015
0.386416
0.386817
0.387218
0.38762
0.388021
0.388422
0.388823
0.389225
0.389626
0.390027
0.390429
0.39083
0.391232
0.391633
0.392035
0.392437
0.392838
0.39324
0.393642
0.394044
0.394445
0.394847
0.395249
0.395651
0.396053
0.396455
0.396857
0.397259
0.397661
0.398063
0.398465
0.398867
0.399269
0.399671
0.400074
0.400476
0.400878
0.401281
0.401683
0.402085
0.402488
0.40289
0.403292
0.403695
0.404097
0.4045
0.404902
0.405305
0.405708
0.40611
0.406513
0.406915
0.407318
0.407721
0.408123
0.408526
0.408929
0.409332
0.409734
0.410137
0.41054
0.410943
0.411346
0.411749
0.412152
0.412554
0.412957
0.41336
0.413763
0.414166
0.414569
0.414972
0.415375
0.415778
0.416181
0.416584
0.416987
0.417391
0.417794
0.418197
0.4186
0.419003
0.419406
0.419809
0.420212
0.420616
0.421019
0.421422
0.421825
0.422228
0.422631
0.423035
0.423438
0.423841
0.424244
0.424648
0.425051
0.425454
0.425857
0.426261
0.426664
0.427067
0.42747
0.427874
0.428277
0.42868
0.429083
0.429487
0.42989
0.430293
0.430696
0.4311
0.431503
0.431906
0.43231
0.432713
0.433116
0.433519
0.433923
0.434326
0.434729
0.435132
0.435536
0.435939
0.436342
0.436745
0.437149
0.437552
0.437955
0.438358
0.438762
0.439165
0.439568
0.439971
0.440374
0.440777
0.441181
0.441584
0.441987
0.44239
0.442793
0.443196
0.443599
0.444002
0.444406
0.444809
0.445212
0.445615
0.446018
0.446421
0.446824
0.447227
0.44763
0.448033
0.448436
0.448839
0.449241
0.449644
0.450047
0.45045
0.450853
0.451256
0.451659
0.452061
0.452464
0.452867
0.45327
0.453672
0.454075
0.454478
0.45488
0.455283
0.455686
0.456088
0.456491
0.456893
0.457296
0.457698
0.458101
0.458503
0.458906
0.459308
0.459711
0.460113
0.460515
0.460918
0.46132
0.461722
0.462124
0.462527
0.462929
0.463331
0.463733
0.464135
0.464537
0.464939
0.465341
0.465743
0.466145
0.466547
0.466949
0.467351
0.467753
0.468155
0.468556
0.468958
0.46936
0.469761
0.470163
0.470565
0.470966
0.471368
0.471769
0.472171
0.472572
0.472974
0.473375
0.473776
0.474178
0.474579
0.47498
0.475381
0.475783
0.476184
0.476585
0.476986
0.477387
0.477788
0.478189
0.47859
0.47899
0.479391
0.479792
0.480193
0.480593
0.480994
0.481395
0.481795
0.482196
0.482596
0.482997
0.483397
0.483797
0.484198
0.484598
0.484998
0.485398
0.485798
0.486198
0.486598
0.486998
0.487398
0.487798
0.488198
0.488598
0.488998
0.489397
0.489797
0.490197
0.490596
0.490996
0.491395
0.491795
0.492194
0.492593
0.492993
0.493392
0.493791
0.49419
0.494589
0.494988
0.495387
0.495786
0.496185
0.496584
0.496982
0.497381
0.49778
0.498178
0.498577
0.498975
0.499374
0.499772
0.50017
0.500569
0.500967
0.501365
0.501763
0.502161
0.502559
0.502957
0.503355
0.503753
0.50415
0.504548
0.504946
0.505343
0.505741
0.506138
0.506536
0.506933
0.50733
0.507727
0.508124
0.508522
0.508919
0.509315
0.509712
0.510109
0.510506
0.510903
0.511299
0.511696
0.512092
0.512489
0.512885
0.513282
0.513678
0.514074
0.51447
0.514866
0.515262
0.515658
0.516054
0.51645
0.516845
0.517241
0.517637
0.518032
0.518428
0.518823
0.519218
0.519614
0.520009
0.520404
0.520799
0.521194
0.521589
0.521984
0.522378
0.522773
0.523168
0.523562
0.523957
0.524351
0.524745
0.52514
0.525534
0.525928
0.526322
0.526716
0.52711
0.527503
0.527897
0.528291
0.528684
0.529078
0.529471
0.529865
0.530258
0.530651
0.531044
0.531437
0.53183
0.532223
0.532616
0.533009
0.533401
0.533794
0.534186
0.534579
0.534971
0.535363
0.535756
0.536148
0.53654
0.536932
0.537323
0.537715
0.538107
0.538499
0.53889
0.539281
0.539673
0.540064
0.540455
0.540846
0.541237
0.541628
0.542019
0.54241
0.542801
0.543191
0.543582
0.543972
0.544363
0.544753
0.545143
0.545533
0.545923
0.546313
0.546703
0.547093
0.547482
0.547872
0.548261
0.548651
0.54904
0.549429
0.549819
0.550208
0.550597
0.550985
0.551374
0.551763
0.552151
0.55254
0.552928
0.553317
0.553705
0.554093
0.554481
0.554869
0.555257
0.555645
0.556032
0.55642
0.556807
0.557195
0.557582
0.557969
0.558356
0.558743
0.55913
0.559517
0.559904
0.560291
0.560677
0.561064
0.56145
0.561836
0.562222
0.562609
0.562994
0.56338
0.563766
0.564152
0.564537
0.564923
0.565308
0.565694
0.566079
0.566464
0.566849
0.567234
0.567619
0.568003
0.568388
0.568772
0.569157
0.569541
0.569925
0.570309
0.570693
0.571077
0.571461
0.571845
0.572228
0.572612
0.572995
0.573378
0.573762
0.574145
0.574528
0.574911
0.575293
0.575676
0.576059
0.576441
0.576823
0.577206
0.577588
0.57797
0.578352
0.578734
0.579115
0.579497
0.579878
0.58026
0.580641
0.581022
0.581403
0.581784
0.582165
0.582546
0.582927
0.583307
0.583688
0.584068
0.584448
0.584828
0.585208
0.585588
0.585968
0.586348
0.586727
0.587107
0.587486
0.587865
0.588244
0.588623
0.589002
0.589381
0.58976
0.590138
0.590517
0.590895
0.591273
0.591651
0.592029
0.592407
0.592785
0.593163
0.59354
0.593918
0.594295
0.594672
0.595049
0.595426
0.595803
0.59618
0.596557
0.596933
0.59731
0.597686
0.598062
0.598438
0.598814
0.59919
0.599566
0.599941
0.600317
0.600692
0.601067
0.601442
0.601817
0.602192
0.602567
0.602942
0.603316
0.603691
0.604065
0.604439
0.604813
0.605187
0.605561
0.605935
0.606308
0.606682
0.607055
0.607428
0.607802
0.608175
0.608547
0.60892
0.609293
0.609665
0.610038
0.61041
0.610782
0.611154
0.611526
0.611898
0.61227
0.612641
0.613012
0.613384
0.613755
0.614126
0.614497
0.614868
0.615238
0.615609
0.615979
0.61635
0.61672
0.61709
0.61746
0.61783
0.618199
0.618569
0.618938
0.619308
0.619677
0.620046
0.620415
0.620784
0.621152
0.621521
0.621889
0.622257
0.622626
0.622994
0.623362
0.623729
0.624097
0.624465
0.624832
0.625199
0.625566
0.625933
0.6263
0.626667
0.627034
0.6274
0.627767
0.628133
0.628499
0.628865
0.629231
0.629596
0.629962
0.630327
0.630693
0.631058
0.631423
0.631788
0.632153
0.632518
0.632882
0.633246
0.633611
0.633975
0.634339
0.634703
0.635067
0.63543
0.635794
0.636157
0.63652
0.636883
0.637246
0.637609
0.637972
0.638334
0.638697
0.639059
0.639421
0.639783
0.640145
0.640507
0.640869
0.64123
0.641591
0.641953
0.642314
0.642675
0.643036
0.643396
0.643757
0.644117
0.644477
0.644838
0.645198
0.645557
0.645917
0.646277
0.646636
0.646996
0.647355
0.647714
0.648073
0.648431
0.64879
0.649149
0.649507
0.649865
0.650223
0.650581
0.650939
0.651297
0.651654
0.652012
0.652369
0.652726
0.653083
0.65344
0.653796
0.654153
0.654509
0.654866
0.655222
0.655578
0.655934
0.656289
0.656645
0.657
0.657356
0.657711
0.658066
0.658421
0.658775
0.65913
0.659484
0.659839
0.660193
0.660547
0.660901
0.661254
0.661608
0.661962
0.662315
0.662668
0.663021
0.663374
0.663727
0.664079
0.664432
0.664784
0.665136
0.665488
0.66584
0.666192
0.666543
0.666895
0.667246
0.667597
0.667948
0.668299
0.66865
0.669001
0.669351
0.669701
0.670051
0.670401
0.670751
0.671101
0.671451
0.6718
0.672149
0.672498
0.672847
0.673196
0.673545
0.673894
0.674242
0.67459
0.674938
0.675286
0.675634
0.675982
0.676329
0.676677
0.677024
0.677371
0.677718
0.678065
0.678411
0.678758
0.679104
0.67945
0.679796
0.680142
0.680488
0.680834
0.681179
0.681524
0.68187
0.682215
0.68256
0.682904
0.683249
0.683593
0.683937
0.684282
0.684626
0.684969
0.685313
0.685657
0.686
0.686343
0.686686
0.687029
0.687372
0.687715
0.688057
0.688399
0.688742
0.689084
0.689425
0.689767
0.690109
0.69045
0.690791
0.691133
0.691474
0.691814
0.692155
0.692496
0.692836
0.693176
0.693516
0.693856
0.694196
0.694535
0.694875
0.695214
0.695553
0.695892
0.696231
0.69657
0.696908
0.697247
0.697585
0.697923
0.698261
0.698599
0.698936
0.699274
0.699611
0.699948
0.700285
0.700622
0.700959
0.701295
0.701632
0.701968
0.702304
0.70264
0.702976
0.703312
0.703647
0.703982
0.704318
0.704653
0.704987
0.705322
0.705657
0.705991
0.706325
0.706659
0.706993
0.707327
0.707661
0.707994
0.708327
0.708661
0.708994
0.709326
0.709659
0.709992
0.710324
0.710656
0.710988
0.71132
0.711652
0.711983
0.712315
0.712646
0.712977
0.713308
0.713639
0.71397
0.7143
0.714631
0.714961
0.715291
0.715621
0.71595
0.71628
0.716609
0.716939
0.717268
0.717597
0.717925
0.718254
0.718582
0.718911
0.719239
0.719567
0.719895
0.720222
0.72055
0.720877
0.721204
0.721532
0.721858
0.722185
0.722512
0.722838
0.723164
0.72349
0.723816
0.724142
0.724468
0.724793
0.725119
0.725444
0.725769
0.726093
0.726418
0.726743
0.727067
0.727391
0.727715
0.728039
0.728363
0.728686
0.72901
0.729333
0.729656
0.729979
0.730302
0.730624
0.730947
0.731269
0.731591
0.731913
0.732235
0.732556
0.732878
0.733199
0.73352
0.733841
0.734162
0.734483
0.734803
0.735124
0.735444
0.735764
0.736084
0.736404
0.736723
0.737042
0.737362
0.737681
0.738
0.738318
0.738637
0.738955
0.739274
0.739592
0.73991
0.740228
0.740545
0.740863
0.74118
0.741497
0.741814
0.742131
0.742447
0.742764
0.74308
0.743396
0.743712
0.744028
0.744344
0.744659
0.744975
0.74529
0.745605
0.74592
0.746235
0.746549
0.746864
0.747178
0.747492
0.747806
0.748119
0.748433
0.748746
0.74906
0.749373
0.749686
0.749999
0.750311
0.750624
0.750936
0.751248
0.75156
0.751872
0.752183
0.752495
0.752806
0.753117
0.753428
0.753739
0.75405
0.75436
0.75467
0.754981
0.755291
0.7556
0.75591
0.75622
0.756529
0.756838
0.757147
0.757456
0.757765
0.758073
0.758382
0.75869
0.758998
0.759306
0.759613
0.759921
0.760228
0.760536
0.760843
0.76115
0.761456
0.761763
0.762069
0.762375
0.762682
0.762987
0.763293
0.763599
0.763904
0.764209
0.764515
0.764819
0.765124
0.765429
0.765733
0.766038
0.766342
0.766646
0.766949
0.767253
0.767556
0.76786
0.768163
0.768466
0.768769
0.769071
0.769374
0.769676
0.769978
0.77028
0.770582
0.770884
0.771185
0.771486
0.771788
0.772089
0.772389
0.77269
0.77299
0.773291
0.773591
0.773891
0.774191
0.77449
0.77479
0.775089
0.775388
0.775687
0.775986
0.776285
0.776584
0.776882
0.77718
0.777478
0.777776
0.778074
0.778371
0.778669
0.778966
0.779263
0.77956
0.779856
0.780153
0.780449
0.780745
0.781042
0.781337
0.781633
0.781929
0.782224
0.782519
0.782814
0.783109
0.783404
0.783698
0.783993
0.784287
0.784581
0.784875
0.785169
0.785462
0.785756
0.786049
0.786342
0.786635
0.786928
0.78722
0.787513
0.787805
0.788097
0.788389
0.788681
0.788972
0.789264
0.789555
0.789846
0.790137
0.790428
0.790718
0.791009
0.791299
0.791589
0.791879
0.792169
0.792458
0.792748
0.793037
0.793326
0.793615
0.793904
0.794192
0.794481
0.794769
0.795057
0.795345
0.795633
0.795921
0.796208
0.796495
0.796783
0.797069
0.797356
0.797643
0.797929
0.798216
0.798502
0.798788
0.799074
0.799359
0.799645
0.79993
0.800215
0.8005
0.800785
0.801069
0.801354
0.801638
0.801922
0.802206
0.80249
0.802774
0.803057
0.803341
0.803624
0.803907
0.80419
0.804472
0.804755
0.805037
0.805319
0.805601
0.805883
0.806165
0.806446
0.806728
0.807009
0.80729
0.807571
0.807851
0.808132
0.808412
0.808692
0.808972
0.809252
0.809532
0.809811
0.810091
0.81037
0.810649
0.810928
0.811206
0.811485
0.811763
0.812041
0.812319
0.812597
0.812875
0.813153
0.81343
0.813707
0.813984
0.814261
0.814538
0.814814
0.815091
0.815367
0.815643
0.815919
0.816194
0.81647
0.816745
0.817021
0.817296
0.817571
0.817845
0.81812
0.818394
0.818668
0.818943
0.819216
0.81949
0.819764
0.820037
0.82031
0.820583
0.820856
0.821129
0.821402
0.821674
0.821946
0.822218
0.82249
0.822762
0.823034
0.823305
0.823576
0.823847
0.824118
0.824389
0.82466
0.82493
0.825201
0.825471
0.825741
0.82601
0.82628
0.826549
0.826819
0.827088
0.827357
0.827626
0.827894
0.828163
0.828431
0.828699
0.828967
0.829235
0.829503
0.82977
0.830037
0.830304
0.830571
0.830838
0.831105
0.831371
0.831638
0.831904
0.83217
0.832436
0.832701
0.832967
0.833232
0.833498
0.833763
0.834027
0.834292
0.834557
0.834821
0.835085
0.835349
0.835613
0.835877
0.83614
0.836404
0.836667
0.83693
0.837193
0.837456
0.837718
0.837981
0.838243
0.838505
0.838767
0.839029
0.83929
0.839552
0.839813
0.840074
0.840335
0.840596
0.840856
0.841117
0.841377
0.841637
0.841897
0.842157
0.842416
0.842676
0.842935
0.843194
0.843453
0.843712
0.843971
0.844229
0.844487
0.844746
0.845004
0.845261
0.845519
0.845777
0.846034
0.846291
0.846548
0.846805
0.847062
0.847318
0.847575
0.847831
0.848087
0.848343
0.848598
0.848854
0.849109
0.849365
0.84962
0.849875
0.850129
0.850384
0.850638
0.850893
0.851147
0.851401
0.851654
0.851908
0.852161
0.852415
0.852668
0.852921
0.853174
0.853426
0.853679
0.853931
0.854183
0.854435
0.854687
0.854939
0.85519
0.855441
0.855693
0.855944
0.856195
0.856445
0.856696
0.856946
0.857196
0.857446
0.857696
0.857946
0.858196
0.858445
0.858694
0.858943
0.859192
0.859441
0.85969
0.859938
0.860186
0.860434
0.860682
0.86093
0.861178
0.861425
0.861673
0.86192
0.862167
0.862414
0.86266
0.862907
0.863153
0.863399
0.863645
0.863891
0.864137
0.864383
0.864628
0.864873
0.865118
0.865363
0.865608
0.865853
0.866097
0.866341
0.866585
0.866829
0.867073
0.867317
0.86756
0.867803
0.868047
0.86829
0.868532
0.868775
0.869018
0.86926
0.869502
0.869744
0.869986
0.870228
0.870469
0.870711
0.870952
0.871193
0.871434
0.871675
0.871915
0.872156
0.872396
0.872636
0.872876
0.873116
0.873356
0.873595
0.873835
0.874074
0.874313
0.874552
0.87479
0.875029
0.875267
0.875505
0.875744
0.875981
0.876219
0.876457
0.876694
0.876932
0.877169
0.877406
0.877642
0.877879
0.878116
0.878352
0.878588
0.878824
0.87906
0.879296
0.879531
0.879767
0.880002
0.880237
0.880472
0.880707
0.880941
0.881176
0.88141
0.881644
0.881878
0.882112
0.882345
0.882579
0.882812
0.883045
0.883278
0.883511
0.883744
0.883977
0.884209
0.884441
0.884673
0.884905
0.885137
0.885369
0.8856
0.885831
0.886063
0.886294
0.886524
0.886755
0.886986
0.887216
0.887446
0.887676
0.887906
0.888136
0.888366
0.888595
0.888824
0.889053
0.889282
0.889511
0.88974
0.889968
0.890197
0.890425
0.890653
0.890881
0.891109
0.891336
0.891564
0.891791
0.892018
0.892245
0.892472
0.892698
0.892925
0.893151
0.893377
0.893603
0.893829
0.894055
0.894281
0.894506
0.894731
0.894956
0.895181
0.895406
0.895631
0.895855
0.896079
0.896304
0.896528
0.896752
0.896975
0.897199
0.897422
0.897645
0.897869
0.898092
0.898314
0.898537
0.898759
0.898982
0.899204
0.899426
0.899648
0.89987
0.900091
0.900313
0.900534
0.900755
0.900976
0.901197
0.901417
0.901638
0.901858
0.902078
0.902298
0.902518
0.902738
0.902958
0.903177
0.903396
0.903615
0.903834
0.904053
0.904272
0.90449
0.904709
0.904927
0.905145
0.905363
0.905581
0.905798
0.906016
0.906233
0.90645
0.906667
0.906884
0.907101
0.907317
0.907534
0.90775
0.907966
0.908182
0.908398
0.908614
0.908829
0.909044
0.90926
0.909475
0.90969
0.909904
0.910119
0.910333
0.910548
0.910762
0.910976
0.91119
0.911403
0.911617
0.91183
0.912043
0.912257
0.912469
0.912682
0.912895
0.913107
0.91332
0.913532
0.913744
0.913956
0.914168
0.914379
0.914591
0.914802
0.915013
0.915224
0.915435
0.915646
0.915856
0.916067
0.916277
0.916487
0.916697
0.916907
0.917116
0.917326
0.917535
0.917745
0.917954
0.918163
0.918371
0.91858
0.918788
0.918997
0.919205
0.919413
0.919621
0.919829
0.920036
0.920244
0.920451
0.920658
0.920865
0.921072
0.921279
0.921485
0.921692
0.921898
0.922104
0.92231
0.922516
0.922721
0.922927
0.923132
0.923338
0.923543
0.923748
0.923952
0.924157
0.924362
0.924566
0.92477
0.924974
0.925178
0.925382
0.925586
0.925789
0.925992
0.926196
0.926399
0.926602
0.926804
0.927007
0.927209
0.927412
0.927614
0.927816
0.928018
0.928219
0.928421
0.928623
0.928824
0.929025
0.929226
0.929427
0.929628
0.929828
0.930029
0.930229
0.930429
0.930629
0.930829
0.931029
0.931228
0.931428
0.931627
0.931826
0.932025
0.932224
0.932423
0.932621
0.93282
0.933018
0.933216
0.933414
0.933612
0.933809
0.934007
0.934204
0.934402
0.934599
0.934796
0.934993
0.935189
0.935386
0.935582
0.935779
0.935975
0.936171
0.936367
0.936562
0.936758
0.936953
0.937149
0.937344
0.937539
0.937733
0.937928
0.938123
0.938317
0.938511
0.938706
0.9389
0.939093
0.939287
0.939481
0.939674
0.939867
0.940061
0.940254
0.940446
0.940639
0.940832
0.941024
0.941217
0.941409
0.941601
0.941793
0.941984
0.942176
0.942367
0.942559
0.94275
0.942941
0.943132
0.943323
0.943513
0.943704
0.943894
0.944084
0.944274
0.944464
0.944654
0.944844
0.945033
0.945223
0.945412
0.945601
0.94579
0.945979
0.946167
0.946356
0.946544
0.946732
0.946921
0.947108
0.947296
0.947484
0.947672
0.947859
0.948046
0.948233
0.94842
0.948607
0.948794
0.948981
0.949167
0.949353
0.949539
0.949726
0.949911
0.950097
0.950283
0.950468
0.950654
0.950839
0.951024
0.951209
0.951394
0.951578
0.951763
0.951947
0.952131
0.952316
0.9525
0.952683
0.952867
0.953051
0.953234
0.953417
0.953601
0.953784
0.953966
0.954149
0.954332
0.954514
0.954697
0.954879
0.955061
0.955243
0.955425
0.955606
0.955788
0.955969
0.95615
0.956332
0.956513
0.956693
0.956874
0.957055
0.957235
0.957415
0.957596
0.957776
0.957956
0.958135
0.958315
0.958495
0.958674
0.958853
0.959032
0.959211
0.95939
0.959569
0.959747
0.959926
0.960104
0.960282
0.96046
0.960638
0.960816
0.960993
0.961171
0.961348
0.961526
0.961703
0.96188
0.962056
0.962233
0.96241
0.962586
0.962762
0.962939
0.963115
0.96329
0.963466
0.963642
0.963817
0.963993
0.964168
0.964343
0.964518
0.964693
0.964868
0.965042
0.965217
0.965391
0.965565
0.965739
0.965913
0.966087
0.96626
0.966434
0.966607
0.966781
0.966954
0.967127
0.9673
0.967472
0.967645
0.967817
0.96799
0.968162
0.968334
0.968506
0.968678
0.96885
0.969021
0.969192
0.969364
0.969535
0.969706
0.969877
0.970048
0.970218
0.970389
0.970559
0.97073
0.9709
0.97107
0.97124
0.971409
0.971579
0.971748
0.971918
0.972087
0.972256
0.972425
0.972594
0.972763
0.972931
0.9731
0.973268
0.973436
0.973604
0.973772
0.97394
0.974108
0.974275
0.974443
0.97461
0.974777
0.974944
0.975111
0.975278
0.975444
0.975611
0.975777
0.975944
0.97611
0.976276
0.976442
0.976607
0.976773
0.976939
0.977104
0.977269
0.977434
0.977599
0.977764
0.977929
0.978094
0.978258
0.978423
0.978587
0.978751
0.978915
0.979079
0.979242
0.979406
0.97957
0.979733
0.979896
0.980059
0.980222
0.980385
0.980548
0.980711
0.980873
0.981035
0.981198
0.98136
0.981522
0.981684
0.981845
0.982007
0.982168
0.98233
0.982491
0.982652
0.982813
0.982974
0.983135
0.983295
0.983456
0.983616
0.983776
0.983937
0.984097
0.984256
0.984416
0.984576
0.984735
0.984895
0.985054
0.985213
0.985372
0.985531
0.98569
0.985848
0.986007
0.986165
0.986324
0.986482
0.98664
0.986798
0.986955
0.987113
0.987271
0.987428
0.987585
0.987742
0.987899
0.988056
0.988213
0.98837
0.988526
0.988683
0.988839
0.988995
0.989151
0.989307
0.989463
0.989619
0.989775
0.98993
0.990085
0.990241
0.990396
0.990551
0.990705
0.99086
0.991015
0.991169
0.991324
0.991478
0.991632
0.991786
0.99194
0.992094
0.992247
0.992401
0.992554
0.992708
0.992861
0.993014
0.993167
0.99332
0.993472
0.993625
0.993777
0.99393
0.994082
0.994234
0.994386
0.994538
0.99469
0.994841
0.994993
0.995144
0.995295
0.995447
0.995598
0.995749
0.995899
0.99605
0.996201
0.996351
0.996501
0.996651
0.996802
0.996952
0.997101
0.997251
0.997401
0.99755
0.9977
0.997849
0.997998
0.998147
0.998296
0.998445
0.998593
0.998742
0.99889
0.999039
0.999187
0.999335
0.999483
0.999631
0.999779
0.999926
)
;

boundaryField
{
    bottom
    {
        type            calculated;
        value           uniform 0.05;
    }
    top
    {
        type            calculated;
        value           uniform 1;
    }
    sidesX
    {
        type            empty;
    }
    sidesY
    {
        type            empty;
    }
}


// ************************************************************************* //
