/*--------------------------------*- C++ -*----------------------------------*\
| =========                 |                                                 |
| \\      /  F ield         | OpenFOAM: The Open Source CFD Toolbox           |
|  \\    /   O peration     | Version:  v2012                                 |
|   \\  /    A nd           | Website:  www.openfoam.com                      |
|    \\/     M anipulation  |                                                 |
\*---------------------------------------------------------------------------*/
FoamFile
{
    version     2.0;
    format      ascii;
    class       volVectorField;
    location    "48.5";
    object      jb;
}
// * * * * * * * * * * * * * * * * * * * * * * * * * * * * * * * * * * * * * //

dimensions      [1 -2 -1 0 0 0 0];


internalField   nonuniform List<vector> 
300
(
(-0 -0 -1.22618e-05)
(-0 -0 -1.22719e-05)
(-0 -0 -1.22821e-05)
(-0 -0 -1.22923e-05)
(-0 -0 -1.23025e-05)
(-0 -0 -1.23127e-05)
(-0 -0 -1.23229e-05)
(-0 -0 -1.23331e-05)
(-0 -0 -1.23434e-05)
(-0 -0 -1.23536e-05)
(-0 -0 -1.23639e-05)
(-0 -0 -1.23741e-05)
(-0 -0 -1.23844e-05)
(-0 -0 -1.23947e-05)
(-0 -0 -1.24049e-05)
(-0 -0 -1.24152e-05)
(-0 -0 -1.24255e-05)
(-0 -0 -1.24358e-05)
(-0 -0 -1.24462e-05)
(-0 -0 -1.24565e-05)
(-0 -0 -1.24668e-05)
(-0 -0 -1.24772e-05)
(-0 -0 -1.24875e-05)
(-0 -0 -1.24979e-05)
(-0 -0 -1.25082e-05)
(-0 -0 -1.25186e-05)
(-0 -0 -1.2529e-05)
(-0 -0 -1.25394e-05)
(-0 -0 -1.25498e-05)
(-0 -0 -1.25602e-05)
(-0 -0 -1.25706e-05)
(-0 -0 -1.25811e-05)
(-0 -0 -1.25915e-05)
(-0 -0 -1.26019e-05)
(-0 -0 -1.26124e-05)
(-0 -0 -1.26229e-05)
(-0 -0 -1.26333e-05)
(-0 -0 -1.26438e-05)
(-0 -0 -1.26543e-05)
(-0 -0 -1.26648e-05)
(-0 -0 -1.26753e-05)
(-0 -0 -1.26858e-05)
(-0 -0 -1.26963e-05)
(-0 -0 -1.27069e-05)
(-0 -0 -1.27174e-05)
(-0 -0 -1.2728e-05)
(-0 -0 -1.27385e-05)
(-0 -0 -1.27491e-05)
(-0 -0 -1.27597e-05)
(-0 -0 -1.27703e-05)
(-0 -0 -1.27809e-05)
(-0 -0 -1.27915e-05)
(-0 -0 -1.28021e-05)
(-0 -0 -1.28127e-05)
(-0 -0 -1.28233e-05)
(-0 -0 -1.2834e-05)
(-0 -0 -1.28446e-05)
(-0 -0 -1.28553e-05)
(-0 -0 -1.28659e-05)
(-0 -0 -1.28766e-05)
(-0 -0 -1.28873e-05)
(-0 -0 -1.2898e-05)
(-0 -0 -1.29087e-05)
(-0 -0 -1.29194e-05)
(-0 -0 -1.29301e-05)
(-0 -0 -1.29408e-05)
(-0 -0 -1.29516e-05)
(-0 -0 -1.29623e-05)
(-0 -0 -1.29731e-05)
(-0 -0 -1.29838e-05)
(-0 -0 -1.29946e-05)
(-0 -0 -1.30054e-05)
(-0 -0 -1.30162e-05)
(-0 -0 -1.3027e-05)
(-0 -0 -1.30378e-05)
(-0 -0 -1.30486e-05)
(-0 -0 -1.30594e-05)
(-0 -0 -1.30702e-05)
(-0 -0 -1.30811e-05)
(-0 -0 -1.30919e-05)
(-0 -0 -1.31028e-05)
(-0 -0 -1.31137e-05)
(-0 -0 -1.31245e-05)
(-0 -0 -1.31354e-05)
(-0 -0 -1.31463e-05)
(-0 -0 -1.31572e-05)
(-0 -0 -1.31682e-05)
(-0 -0 -1.31791e-05)
(-0 -0 -1.319e-05)
(-0 -0 -1.3201e-05)
(-0 -0 -1.32119e-05)
(-0 -0 -1.32229e-05)
(-0 -0 -1.32338e-05)
(-0 -0 -1.32448e-05)
(-0 -0 -1.32558e-05)
(-0 -0 -1.32668e-05)
(-0 -0 -1.32778e-05)
(-0 -0 -1.32888e-05)
(-0 -0 -1.32998e-05)
(-0 -0 -1.33109e-05)
(-0 -0 -1.33219e-05)
(-0 -0 -1.3333e-05)
(-0 -0 -1.3344e-05)
(-0 -0 -1.33551e-05)
(-0 -0 -1.33662e-05)
(-0 -0 -1.33773e-05)
(-0 -0 -1.33884e-05)
(-0 -0 -1.33995e-05)
(-0 -0 -1.34106e-05)
(-0 -0 -1.34217e-05)
(-0 -0 -1.34328e-05)
(-0 -0 -1.3444e-05)
(-0 -0 -1.34551e-05)
(-0 -0 -1.34663e-05)
(-0 -0 -1.34775e-05)
(-0 -0 -1.34887e-05)
(-0 -0 -1.34999e-05)
(-0 -0 -1.35111e-05)
(-0 -0 -1.35223e-05)
(-0 -0 -1.35335e-05)
(-0 -0 -1.35447e-05)
(-0 -0 -1.35559e-05)
(-0 -0 -1.35672e-05)
(-0 -0 -1.35784e-05)
(-0 -0 -1.35897e-05)
(-0 -0 -1.3601e-05)
(-0 -0 -1.36123e-05)
(-0 -0 -1.36236e-05)
(-0 -0 -1.36349e-05)
(-0 -0 -1.36462e-05)
(-0 -0 -1.36575e-05)
(-0 -0 -1.36688e-05)
(-0 -0 -1.36802e-05)
(-0 -0 -1.36915e-05)
(-0 -0 -1.37029e-05)
(-0 -0 -1.37142e-05)
(-0 -0 -1.37256e-05)
(-0 -0 -1.3737e-05)
(-0 -0 -1.37484e-05)
(-0 -0 -1.37598e-05)
(-0 -0 -1.37712e-05)
(-0 -0 -1.37826e-05)
(-0 -0 -1.37941e-05)
(-0 -0 -1.38055e-05)
(-0 -0 -1.3817e-05)
(-0 -0 -1.38284e-05)
(-0 -0 -1.38399e-05)
(-0 -0 -1.38514e-05)
(-0 -0 -1.38629e-05)
(-0 -0 -1.38744e-05)
(-0 -0 -1.38859e-05)
(-0 -0 -1.38974e-05)
(-0 -0 -1.39089e-05)
(-0 -0 -1.39205e-05)
(-0 -0 -1.3932e-05)
(-0 -0 -1.39436e-05)
(-0 -0 -1.39551e-05)
(-0 -0 -1.39667e-05)
(-0 -0 -1.39783e-05)
(-0 -0 -1.39899e-05)
(-0 -0 -1.40015e-05)
(-0 -0 -1.40131e-05)
(-0 -0 -1.40248e-05)
(-0 -0 -1.40364e-05)
(-0 -0 -1.4048e-05)
(-0 -0 -1.40597e-05)
(-0 -0 -1.40714e-05)
(-0 -0 -1.4083e-05)
(-0 -0 -1.40947e-05)
(-0 -0 -1.41064e-05)
(-0 -0 -1.41181e-05)
(-0 -0 -1.41298e-05)
(-0 -0 -1.41415e-05)
(-0 -0 -1.41533e-05)
(-0 -0 -1.4165e-05)
(-0 -0 -1.41768e-05)
(-0 -0 -1.41885e-05)
(-0 -0 -1.42003e-05)
(-0 -0 -1.42121e-05)
(-0 -0 -1.42239e-05)
(-0 -0 -1.42357e-05)
(-0 -0 -1.42475e-05)
(-0 -0 -1.42593e-05)
(-0 -0 -1.42711e-05)
(-0 -0 -1.4283e-05)
(-0 -0 -1.42948e-05)
(-0 -0 -1.43067e-05)
(-0 -0 -1.43185e-05)
(-0 -0 -1.43304e-05)
(-0 -0 -1.43423e-05)
(-0 -0 -1.43542e-05)
(-0 -0 -1.43661e-05)
(-0 -0 -1.4378e-05)
(-0 -0 -1.439e-05)
(-0 -0 -1.44019e-05)
(-0 -0 -1.44138e-05)
(-0 -0 -1.44258e-05)
(-0 -0 -1.44378e-05)
(-0 -0 -1.44497e-05)
(-0 -0 -1.44617e-05)
(-0 -0 -1.44737e-05)
(-0 -0 -1.44857e-05)
(-0 -0 -1.44978e-05)
(-0 -0 -1.45098e-05)
(-0 -0 -1.45218e-05)
(-0 -0 -1.45339e-05)
(-0 -0 -1.45459e-05)
(-0 -0 -1.4558e-05)
(-0 -0 -1.45701e-05)
(-0 -0 -1.45822e-05)
(-0 -0 -1.45943e-05)
(-0 -0 -1.46064e-05)
(-0 -0 -1.46185e-05)
(-0 -0 -1.46306e-05)
(-0 -0 -1.46427e-05)
(-0 -0 -1.46549e-05)
(-0 -0 -1.4667e-05)
(-0 -0 -1.46792e-05)
(-0 -0 -1.46914e-05)
(-0 -0 -1.47036e-05)
(-0 -0 -1.47158e-05)
(-0 -0 -1.4728e-05)
(-0 -0 -1.47402e-05)
(-0 -0 -1.47524e-05)
(-0 -0 -1.47647e-05)
(-0 -0 -1.47769e-05)
(-0 -0 -1.47892e-05)
(-0 -0 -1.48014e-05)
(-0 -0 -1.48137e-05)
(-0 -0 -1.4826e-05)
(-0 -0 -1.48383e-05)
(-0 -0 -1.48506e-05)
(-0 -0 -1.48629e-05)
(-0 -0 -1.48753e-05)
(-0 -0 -1.48876e-05)
(-0 -0 -1.49e-05)
(-0 -0 -1.49123e-05)
(-0 -0 -1.49247e-05)
(-0 -0 -1.49371e-05)
(-0 -0 -1.49495e-05)
(-0 -0 -1.49619e-05)
(-0 -0 -1.49743e-05)
(-0 -0 -1.49867e-05)
(-0 -0 -1.49991e-05)
(-0 -0 -1.50116e-05)
(-0 -0 -1.5024e-05)
(-0 -0 -1.50365e-05)
(-0 -0 -1.5049e-05)
(-0 -0 -1.50615e-05)
(-0 -0 -1.5074e-05)
(-0 -0 -1.50865e-05)
(-0 -0 -1.5099e-05)
(-0 -0 -1.51115e-05)
(-0 -0 -1.5124e-05)
(-0 -0 -1.51366e-05)
(-0 -0 -1.51491e-05)
(-0 -0 -1.51617e-05)
(-0 -0 -1.51743e-05)
(-0 -0 -1.51869e-05)
(-0 -0 -1.51995e-05)
(-0 -0 -1.52121e-05)
(-0 -0 -1.52247e-05)
(-0 -0 -1.52373e-05)
(-0 -0 -1.525e-05)
(-0 -0 -1.52626e-05)
(-0 -0 -1.52753e-05)
(-0 -0 -1.5288e-05)
(-0 -0 -1.53006e-05)
(-0 -0 -1.53133e-05)
(-0 -0 -1.5326e-05)
(-0 -0 -1.53388e-05)
(-0 -0 -1.53515e-05)
(-0 -0 -1.53642e-05)
(-0 -0 -1.5377e-05)
(-0 -0 -1.53897e-05)
(-0 -0 -1.54025e-05)
(-0 -0 -1.54153e-05)
(-0 -0 -1.54281e-05)
(-0 -0 -1.54409e-05)
(-0 -0 -1.54537e-05)
(-0 -0 -1.54665e-05)
(-0 -0 -1.54793e-05)
(-0 -0 -1.54922e-05)
(-0 -0 -1.5505e-05)
(-0 -0 -1.55179e-05)
(-0 -0 -1.55307e-05)
(-0 -0 -1.55436e-05)
(-0 -0 -1.55565e-05)
(-0 -0 -1.55694e-05)
(-0 -0 -1.55823e-05)
(-0 -0 -1.55953e-05)
(-0 -0 -1.56082e-05)
(-0 -0 -1.56212e-05)
(-0 -0 -1.56341e-05)
(-0 -0 -1.56471e-05)
(-0 -0 -1.56601e-05)
(-0 -0 -1.56731e-05)
(-0 -0 -1.56861e-05)
(-0 -0 -1.56991e-05)
(-0 -0 -1.57121e-05)
)
;

boundaryField
{
    bottom
    {
        type            calculated;
        value           uniform (-0 -0 -1.22567e-05);
    }
    top
    {
        type            calculated;
        value           uniform (-0 -0 -1.57186e-05);
    }
    sidesX
    {
        type            empty;
    }
    sidesY
    {
        type            empty;
    }
}


// ************************************************************************* //
