/*--------------------------------*- C++ -*----------------------------------*\
| =========                 |                                                 |
| \\      /  F ield         | OpenFOAM: The Open Source CFD Toolbox           |
|  \\    /   O peration     | Version:  v2012                                 |
|   \\  /    A nd           | Website:  www.openfoam.com                      |
|    \\/     M anipulation  |                                                 |
\*---------------------------------------------------------------------------*/
FoamFile
{
    version     2.0;
    format      ascii;
    class       volScalarField;
    location    "50";
    object      coeff;
}
// * * * * * * * * * * * * * * * * * * * * * * * * * * * * * * * * * * * * * //

dimensions      [0 0 0 0 0 0 0];


internalField   nonuniform List<scalar> 
100
(
19.1032
17.4167
15.9228
14.596
13.4144
12.3594
11.4152
10.5681
9.8064
9.11985
8.49971
7.93837
7.4292
6.96642
6.545
6.16051
5.80907
5.48728
5.19211
4.92092
4.67136
4.44133
4.22899
4.03268
3.85094
3.68244
3.52601
3.3806
3.24525
3.11912
3.00144
2.8915
2.7887
2.69245
2.60224
2.51762
2.43814
2.36344
2.29315
2.22695
2.16455
2.10569
2.0501
1.99758
1.94791
1.9009
1.85638
1.81418
1.77415
1.73617
1.70009
1.6658
1.6332
1.60218
1.57265
1.54451
1.5177
1.49213
1.46774
1.44445
1.42221
1.40096
1.38065
1.36123
1.34264
1.32485
1.30782
1.29151
1.27587
1.26088
1.24651
1.23272
1.21949
1.20679
1.19459
1.18288
1.17162
1.16081
1.15041
1.14041
1.13079
1.12153
1.11262
1.10405
1.09579
1.08784
1.08019
1.07281
1.0657
1.05885
1.05224
1.04587
1.03972
1.0338
1.02808
1.02257
1.01724
1.0121
1.00714
1.00235
)
;

boundaryField
{
    bottom
    {
        type            calculated;
        value           uniform 20;
    }
    top
    {
        type            calculated;
        value           uniform 1;
    }
    sidesX
    {
        type            empty;
    }
    sidesY
    {
        type            empty;
    }
}


// ************************************************************************* //
