/*--------------------------------*- C++ -*----------------------------------*\
| =========                 |                                                 |
| \\      /  F ield         | OpenFOAM: The Open Source CFD Toolbox           |
|  \\    /   O peration     | Version:  v2012                                 |
|   \\  /    A nd           | Website:  www.openfoam.com                      |
|    \\/     M anipulation  |                                                 |
\*---------------------------------------------------------------------------*/
FoamFile
{
    version     2.0;
    format      ascii;
    class       volVectorField;
    location    "48.5";
    object      ja;
}
// * * * * * * * * * * * * * * * * * * * * * * * * * * * * * * * * * * * * * //

dimensions      [1 -2 -1 0 0 0 0];


internalField   nonuniform List<vector> 
100
(
(-0 -0 2.83816e-06)
(-0 -0 2.92415e-06)
(-0 -0 3.01307e-06)
(-0 -0 3.1047e-06)
(-0 -0 3.19912e-06)
(-0 -0 3.2964e-06)
(-0 -0 3.39665e-06)
(-0 -0 3.49994e-06)
(-0 -0 3.60638e-06)
(-0 -0 3.71605e-06)
(-0 -0 3.82906e-06)
(-0 -0 3.9455e-06)
(-0 -0 4.06548e-06)
(-0 -0 4.18912e-06)
(-0 -0 4.31651e-06)
(-0 -0 4.44778e-06)
(-0 -0 4.58304e-06)
(-0 -0 4.72241e-06)
(-0 -0 4.86602e-06)
(-0 -0 5.014e-06)
(-0 -0 5.16648e-06)
(-0 -0 5.32359e-06)
(-0 -0 5.48549e-06)
(-0 -0 5.6523e-06)
(-0 -0 5.82419e-06)
(-0 -0 6.00131e-06)
(-0 -0 6.18381e-06)
(-0 -0 6.37186e-06)
(-0 -0 6.56563e-06)
(-0 -0 6.7653e-06)
(-0 -0 6.97103e-06)
(-0 -0 7.18303e-06)
(-0 -0 7.40147e-06)
(-0 -0 7.62655e-06)
(-0 -0 7.85848e-06)
(-0 -0 8.09746e-06)
(-0 -0 8.3437e-06)
(-0 -0 8.59744e-06)
(-0 -0 8.85889e-06)
(-0 -0 9.12829e-06)
(-0 -0 9.40589e-06)
(-0 -0 9.69193e-06)
(-0 -0 9.98666e-06)
(-0 -0 1.02904e-05)
(-0 -0 1.06033e-05)
(-0 -0 1.09258e-05)
(-0 -0 1.1258e-05)
(-0 -0 1.16004e-05)
(-0 -0 1.19531e-05)
(-0 -0 1.23166e-05)
(-0 -0 1.26912e-05)
(-0 -0 1.30771e-05)
(-0 -0 1.34748e-05)
(-0 -0 1.38846e-05)
(-0 -0 1.43068e-05)
(-0 -0 1.47419e-05)
(-0 -0 1.51902e-05)
(-0 -0 1.56522e-05)
(-0 -0 1.61282e-05)
(-0 -0 1.66186e-05)
(-0 -0 1.7124e-05)
(-0 -0 1.76448e-05)
(-0 -0 1.81813e-05)
(-0 -0 1.87342e-05)
(-0 -0 1.9304e-05)
(-0 -0 1.9891e-05)
(-0 -0 2.04959e-05)
(-0 -0 2.11192e-05)
(-0 -0 2.17614e-05)
(-0 -0 2.24232e-05)
(-0 -0 2.31051e-05)
(-0 -0 2.38077e-05)
(-0 -0 2.45318e-05)
(-0 -0 2.52778e-05)
(-0 -0 2.60465e-05)
(-0 -0 2.68386e-05)
(-0 -0 2.76547e-05)
(-0 -0 2.84957e-05)
(-0 -0 2.93623e-05)
(-0 -0 3.02552e-05)
(-0 -0 3.11753e-05)
(-0 -0 3.21234e-05)
(-0 -0 3.31003e-05)
(-0 -0 3.41068e-05)
(-0 -0 3.51441e-05)
(-0 -0 3.62128e-05)
(-0 -0 3.7314e-05)
(-0 -0 3.84488e-05)
(-0 -0 3.9618e-05)
(-0 -0 4.08228e-05)
(-0 -0 4.20643e-05)
(-0 -0 4.33435e-05)
(-0 -0 4.46616e-05)
(-0 -0 4.60198e-05)
(-0 -0 4.74192e-05)
(-0 -0 4.88613e-05)
(-0 -0 5.03472e-05)
(-0 -0 5.18783e-05)
(-0 -0 5.34559e-05)
(-0 -0 5.50879e-05)
)
;

boundaryField
{
    bottom
    {
        type            calculated;
        value           uniform (-0 -0 2.79596e-06);
    }
    top
    {
        type            calculated;
        value           uniform (-0 -0 5.59192e-05);
    }
    sidesX
    {
        type            empty;
    }
    sidesY
    {
        type            empty;
    }
}


// ************************************************************************* //
