/*--------------------------------*- C++ -*----------------------------------*\
| =========                 |                                                 |
| \\      /  F ield         | OpenFOAM: The Open Source CFD Toolbox           |
|  \\    /   O peration     | Version:  v2012                                 |
|   \\  /    A nd           | Website:  www.openfoam.com                      |
|    \\/     M anipulation  |                                                 |
\*---------------------------------------------------------------------------*/
FoamFile
{
    version     2.0;
    format      ascii;
    class       volVectorField;
    location    "50";
    object      Nb;
}
// * * * * * * * * * * * * * * * * * * * * * * * * * * * * * * * * * * * * * //

dimensions      [1 -2 -1 0 0 0 0];


internalField   nonuniform List<vector> 
400
(
(-0 -0 1.71948e-19)
(-0 -0 0)
(-0 -0 0)
(-0 -0 -1.73642e-19)
(-0 -0 1.76183e-19)
(-0 -0 8.47033e-22)
(-0 -0 0)
(-0 -0 0)
(-0 -0 -1.82112e-19)
(-0 -0 1.82112e-19)
(-0 -0 -1.83806e-19)
(-0 -0 1.84653e-19)
(-0 -0 8.47033e-22)
(-0 -0 -1.89735e-19)
(-0 -0 1.89735e-19)
(-0 -0 -1.91429e-19)
(-0 -0 1.93124e-19)
(-0 -0 0)
(-0 -0 -1.69407e-21)
(-0 -0 0)
(-0 -0 8.47033e-22)
(-0 -0 0)
(-0 -0 0)
(-0 -0 8.47033e-22)
(-0 -0 -2.05829e-19)
(-0 -0 2.06676e-19)
(-0 -0 -8.47033e-22)
(-0 -0 0)
(-0 -0 8.47033e-22)
(-0 -0 -2.11758e-19)
(-0 -0 2.11758e-19)
(-0 -0 -8.47033e-22)
(-0 -0 2.15993e-19)
(-0 -0 -2.1684e-19)
(-0 -0 -8.47033e-22)
(-0 -0 2.21076e-19)
(-0 -0 -4.48927e-19)
(-0 -0 8.47033e-22)
(-0 -0 2.28699e-19)
(-0 -0 0)
(-0 -0 -2.30393e-19)
(-0 -0 2.32087e-19)
(-0 -0 -2.33781e-19)
(-0 -0 2.35475e-19)
(-0 -0 2.37169e-19)
(-0 -0 0)
(-0 -0 -2.42251e-19)
(-0 -0 0)
(-0 -0 -2.47334e-19)
(-0 -0 -1.69407e-21)
(-0 -0 2.49028e-19)
(-0 -0 2.52416e-19)
(-0 -0 -2.52416e-19)
(-0 -0 -2.55804e-19)
(-0 -0 0)
(-0 -0 2.59192e-19)
(-0 -0 0)
(-0 -0 1.69407e-21)
(-0 -0 -2.64274e-19)
(-0 -0 2.65968e-19)
(-0 -0 0)
(-0 -0 0)
(-0 -0 -2.72745e-19)
(-0 -0 2.74439e-19)
(-0 -0 0)
(-0 -0 -2.76133e-19)
(-0 -0 2.77827e-19)
(-0 -0 2.82909e-19)
(-0 -0 -1.42302e-19)
(-0 -0 -2.86297e-19)
(-0 -0 4.31987e-19)
(-0 -0 -2.89685e-19)
(-0 -0 -4.40457e-19)
(-0 -0 2.94767e-19)
(-0 -0 4.43845e-19)
(-0 -0 -6.01393e-19)
(-0 -0 2.9985e-19)
(-0 -0 1.52466e-19)
(-0 -0 -1.5416e-19)
(-0 -0 -6.18334e-19)
(-0 -0 6.21722e-19)
(-0 -0 -1.57548e-19)
(-0 -0 -1.57548e-19)
(-0 -0 0)
(-0 -0 3.20178e-19)
(-0 -0 1.60936e-19)
(-0 -0 -3.26955e-19)
(-0 -0 1.64324e-19)
(-0 -0 0)
(-0 -0 -3.33731e-19)
(-0 -0 3.35425e-19)
(-0 -0 -6.75932e-19)
(-0 -0 8.52115e-19)
(-0 -0 -3.45589e-19)
(-0 -0 0)
(-0 -0 0)
(-0 -0 1.74489e-19)
(-0 -0 -7.06425e-19)
(-0 -0 5.35325e-19)
(-0 -0 3.57448e-19)
(-0 -0 -5.42101e-19)
(-0 -0 5.47183e-19)
(-0 -0 -1.81265e-19)
(-0 -0 0)
(-0 -0 1.69407e-21)
(-0 -0 -1.88041e-19)
(-0 -0 3.77777e-19)
(-0 -0 1.89735e-19)
(-0 -0 -9.62229e-19)
(-0 -0 9.67312e-19)
(-0 -0 -9.74088e-19)
(-0 -0 3.94717e-19)
(-0 -0 5.92923e-19)
(-0 -0 -3.998e-19)
(-0 -0 -1.999e-19)
(-0 -0 0)
(-0 -0 4.09964e-19)
(-0 -0 -6.14946e-19)
(-0 -0 8.31786e-19)
(-0 -0 -8.3348e-19)
(-0 -0 2.10064e-19)
(-0 -0 0)
(-0 -0 -2.13452e-19)
(-0 -0 4.31987e-19)
(-0 -0 -2.15146e-19)
(-0 -0 4.37069e-19)
(-0 -0 -2.20229e-19)
(-0 -0 -4.42151e-19)
(-0 -0 0)
(-0 -0 6.77626e-19)
(-0 -0 -4.5401e-19)
(-0 -0 -4.55704e-19)
(-0 -0 4.57398e-19)
(-0 -0 2.30393e-19)
(-0 -0 0)
(-0 -0 -1.69407e-21)
(-0 -0 7.11508e-19)
(-0 -0 -7.18284e-19)
(-0 -0 -1.69407e-21)
(-0 -0 -2.40557e-19)
(-0 -0 1.69407e-21)
(-0 -0 2.4564e-19)
(-0 -0 -4.96361e-19)
(-0 -0 4.99749e-19)
(-0 -0 5.04832e-19)
(-0 -0 -1.01305e-18)
(-0 -0 1.69407e-21)
(-0 -0 2.57498e-19)
(-0 -0 7.77576e-19)
(-0 -0 -5.2516e-19)
(-0 -0 0)
(-0 -0 -5.28549e-19)
(-0 -0 5.33631e-19)
(-0 -0 2.67662e-19)
(-0 -0 -5.42101e-19)
(-0 -0 8.21622e-19)
(-0 -0 -1.65171e-18)
(-0 -0 8.31786e-19)
(-0 -0 -5.59042e-19)
(-0 -0 1.12994e-18)
(-0 -0 -1.13502e-18)
(-0 -0 5.74288e-19)
(-0 -0 -1.69407e-21)
(-0 -0 1.42302e-19)
(-0 -0 1.47384e-19)
(-0 -0 -2.94767e-19)
(-0 -0 -1.4569e-19)
(-0 -0 4.47233e-19)
(-0 -0 -4.52316e-19)
(-0 -0 7.57247e-19)
(-0 -0 -1.49078e-19)
(-0 -0 -1.69407e-21)
(-0 -0 -7.74188e-19)
(-0 -0 -6.26804e-19)
(-0 -0 7.87741e-19)
(-0 -0 -1.10961e-18)
(-0 -0 1.92107e-18)
(-0 -0 -2.09725e-18)
(-0 -0 1.14011e-18)
(-0 -0 -6.53909e-19)
(-0 -0 -1.64324e-19)
(-0 -0 1.49755e-18)
(-0 -0 -1.50772e-18)
(-0 -0 2.53432e-18)
(-0 -0 -1.19093e-18)
(-0 -0 -6.84403e-19)
(-0 -0 -3.43895e-19)
(-0 -0 -1.69407e-21)
(-0 -0 5.23466e-19)
(-0 -0 5.26854e-19)
(-0 -0 -1.06726e-18)
(-0 -0 1.78893e-18)
(-0 -0 1.79571e-19)
(-0 -0 -9.11407e-19)
(-0 -0 -1.2841e-18)
(-0 -0 3.67612e-19)
(-0 -0 2.04813e-18)
(-0 -0 -5.60736e-19)
(-0 -0 0)
(-0 -0 -5.709e-19)
(-0 -0 -7.67412e-19)
(-0 -0 1.92785e-18)
(-0 -0 -2.33442e-18)
(-0 -0 1.76522e-18)
(-0 -0 -1.94818e-19)
(-0 -0 0)
(-0 -0 6.04782e-19)
(-0 -0 -2.04982e-19)
(-0 -0 -1.01813e-18)
(-0 -0 4.0827e-19)
(-0 -0 -1.86008e-18)
(-0 -0 1.4569e-18)
(-0 -0 6.28498e-19)
(-0 -0 -1.26716e-18)
(-0 -0 -1.06387e-18)
(-0 -0 1.50264e-18)
(-0 -0 1.72795e-18)
(-0 -0 6.52215e-19)
(-0 -0 -1.97697e-18)
(-0 -0 8.85996e-19)
(-0 -0 -6.67462e-19)
(-0 -0 6.74238e-19)
(-0 -0 -9.02937e-19)
(-0 -0 -1.13672e-18)
(-0 -0 1.60597e-18)
(-0 -0 -9.2496e-19)
(-0 -0 -1.628e-18)
(-0 -0 9.40207e-19)
(-0 -0 1.17907e-18)
(-0 -0 9.52065e-19)
(-0 -0 -2.16163e-18)
(-0 -0 -7.2506e-19)
(-0 -0 2.19043e-18)
(-0 -0 -4.92973e-19)
(-0 -0 -7.43695e-19)
(-0 -0 4.98055e-19)
(-0 -0 -5.01444e-19)
(-0 -0 -1.26377e-18)
(-0 -0 1.27394e-18)
(-0 -0 1.92785e-18)
(-0 -0 -1.16213e-18)
(-0 -0 -6.48827e-19)
(-0 -0 2.60886e-19)
(-0 -0 6.64074e-19)
(-0 -0 3.98105e-19)
(-0 -0 8.06375e-19)
(-0 -0 -6.77626e-19)
(-0 -0 -8.1654e-19)
(-0 -0 -9.62229e-19)
(-0 -0 4.1674e-19)
(-0 -0 -1.25191e-18)
(-0 -0 1.68898e-18)
(-0 -0 -1.40607e-19)
(-0 -0 -4.28599e-19)
(-0 -0 1.29596e-18)
(-0 -0 1.8838e-18)
(-0 -0 -3.9387e-18)
(-0 -0 2.49705e-18)
(-0 -0 -2.37169e-18)
(-0 -0 2.68509e-18)
(-0 -0 -1.95326e-18)
(-0 -0 1.21126e-18)
(-0 -0 -3.0832e-19)
(-0 -0 1.07573e-18)
(-0 -0 -1.70762e-18)
(-0 -0 -3.15096e-19)
(-0 -0 0)
(-0 -0 1.57548e-19)
(-0 -0 2.23956e-18)
(-0 -0 -9.62229e-19)
(-0 -0 -1.6263e-19)
(-0 -0 -3.26955e-19)
(-0 -0 0)
(-0 -0 1.66018e-19)
(-0 -0 -1.67374e-18)
(-0 -0 -1.69407e-21)
(-0 -0 -1.66018e-19)
(-0 -0 1.71101e-19)
(-0 -0 3.09845e-18)
(-0 -0 -3.47284e-19)
(-0 -0 -3.50672e-19)
(-0 -0 -2.64444e-18)
(-0 -0 -1.06557e-18)
(-0 -0 2.85958e-18)
(-0 -0 -1.7991e-18)
(-0 -0 1.81265e-19)
(-0 -0 3.47284e-18)
(-0 -0 -1.28749e-18)
(-0 -0 3.72694e-19)
(-0 -0 -2.80537e-18)
(-0 -0 1.69407e-18)
(-0 -0 7.58942e-19)
(-0 -0 -5.75982e-19)
(-0 -0 -3.86247e-19)
(-0 -0 1.74658e-18)
(-0 -0 -2.34628e-18)
(-0 -0 7.89435e-19)
(-0 -0 2.38355e-18)
(-0 -0 -3.30173e-18)
(-0 -0 -1.00628e-18)
(-0 -0 2.5394e-18)
(-0 -0 -2.14977e-18)
(-0 -0 2.98833e-18)
(-0 -0 -8.31786e-19)
(-0 -0 3.15096e-19)
(-0 -0 1.05371e-18)
(-0 -0 2.10064e-19)
(-0 -0 -4.81284e-18)
(-0 -0 7.43695e-18)
(-0 -0 -7.49624e-18)
(-0 -0 -2.15146e-19)
(-0 -0 -2.20398e-18)
(-0 -0 2.66646e-18)
(-0 -0 3.02391e-18)
(-0 -0 -2.25311e-19)
(-0 -0 2.04643e-18)
(-0 -0 -1.37389e-18)
(-0 -0 -4.64174e-19)
(-0 -0 -6.96261e-19)
(-0 -0 2.3412e-18)
(-0 -0 -5.91229e-19)
(-0 -0 3.57448e-19)
(-0 -0 3.59481e-18)
(-0 -0 -3.01883e-18)
(-0 -0 -3.16113e-18)
(-0 -0 6.11558e-19)
(-0 -0 -3.4542e-18)
(-0 -0 4.59939e-18)
(-0 -0 -6.28498e-19)
(-0 -0 1.76691e-18)
(-0 -0 -5.84961e-18)
(-0 -0 -3.82859e-19)
(-0 -0 4.00477e-18)
(-0 -0 6.47133e-19)
(-0 -0 -1.04863e-18)
(-0 -0 1.84823e-18)
(-0 -0 -5.58703e-18)
(-0 -0 1.87872e-18)
(-0 -0 -2.71051e-19)
(-0 -0 2.38016e-18)
(-0 -0 1.50941e-18)
(-0 -0 -4.2809e-18)
(-0 -0 -3.47284e-19)
(-0 -0 7.36241e-18)
(-0 -0 -3.8828e-18)
(-0 -0 2.13452e-19)
(-0 -0 -1.79063e-18)
(-0 -0 1.58903e-18)
(-0 -0 9.48677e-19)
(-0 -0 1.24683e-18)
(-0 -0 -1.25361e-18)
(-0 -0 -3.64902e-18)
(-0 -0 4.80098e-18)
(-0 -0 -2.57159e-18)
(-0 -0 -5.31937e-19)
(-0 -0 9.97805e-19)
(-0 -0 1.46706e-18)
(-0 -0 -3.27294e-18)
(-0 -0 7.13879e-18)
(-0 -0 1.34339e-18)
(-0 -0 -2.14977e-18)
(-0 -0 -4.41304e-18)
(-0 -0 -1.45351e-18)
(-0 -0 4.23855e-18)
(-0 -0 -1.9702e-18)
(-0 -0 -6.6238e-19)
(-0 -0 -4.28937e-18)
(-0 -0 1.59242e-18)
(-0 -0 2.24294e-18)
(-0 -0 2.34289e-18)
(-0 -0 -5.66665e-18)
(-0 -0 9.09713e-19)
(-0 -0 8.47033e-20)
(-0 -0 6.13252e-19)
(-0 -0 -8.84302e-19)
(-0 -0 2.89855e-18)
(-0 -0 -7.64024e-19)
(-0 -0 -1.35525e-19)
(-0 -0 -1.09267e-18)
(-0 -0 1.33154e-18)
(-0 -0 3.60836e-18)
(-0 -0 -2.55973e-18)
(-0 -0 1.45859e-18)
(-0 -0 -3.30343e-19)
(-0 -0 -1.28918e-18)
(-0 -0 4.80437e-18)
(-0 -0 -2.63766e-18)
(-0 -0 -5.26854e-18)
(-0 -0 7.86216e-18)
(-0 -0 -5.89196e-18)
(-0 -0 -6.74916e-18)
(-0 -0 5.54129e-18)
(-0 -0 6.72544e-19)
(-0 -0 -3.23905e-18)
(-0 -0 1.78893e-18)
(-0 -0 2.44793e-18)
(-0 -0 -3.94379e-18)
(-0 -0 5.05509e-18)
(-0 -0 -1.23497e-18)
(-0 -0 -2.04982e-18)
)
;

boundaryField
{
    bottom
    {
        type            calculated;
        value           uniform (-0 -0 0);
    }
    top
    {
        type            calculated;
        value           uniform (-0 -0 8.50421e-18);
    }
    sidesX
    {
        type            empty;
    }
    sidesY
    {
        type            empty;
    }
}


// ************************************************************************* //
