/*--------------------------------*- C++ -*----------------------------------*\
| =========                 |                                                 |
| \\      /  F ield         | OpenFOAM: The Open Source CFD Toolbox           |
|  \\    /   O peration     | Version:  v2012                                 |
|   \\  /    A nd           | Website:  www.openfoam.com                      |
|    \\/     M anipulation  |                                                 |
\*---------------------------------------------------------------------------*/
FoamFile
{
    version     2.0;
    format      ascii;
    class       volScalarField;
    location    "50";
    object      rho_a;
}
// * * * * * * * * * * * * * * * * * * * * * * * * * * * * * * * * * * * * * //

dimensions      [1 -3 0 0 0 0 0];


internalField   nonuniform List<scalar> 
400
(
0.590341
0.587106
0.583878
0.580657
0.577443
0.574236
0.571036
0.567843
0.564658
0.56148
0.55831
0.555148
0.551994
0.548847
0.545709
0.542579
0.539457
0.536343
0.533238
0.530141
0.527053
0.523973
0.520902
0.517841
0.514788
0.511744
0.508709
0.505683
0.502666
0.499659
0.496661
0.493673
0.490694
0.487725
0.484765
0.481815
0.478875
0.475944
0.473023
0.470113
0.467212
0.464322
0.461441
0.458571
0.455711
0.452861
0.450021
0.447192
0.444373
0.441564
0.438766
0.435979
0.433202
0.430435
0.427679
0.424934
0.4222
0.419476
0.416763
0.414061
0.411369
0.408688
0.406019
0.40336
0.400712
0.398075
0.395448
0.392833
0.390229
0.387636
0.385054
0.382483
0.379923
0.377374
0.374836
0.372309
0.369793
0.367288
0.364795
0.362312
0.359841
0.357381
0.354932
0.352494
0.350067
0.347652
0.345247
0.342854
0.340472
0.338101
0.335741
0.333393
0.331055
0.328729
0.326413
0.324109
0.321816
0.319534
0.317263
0.315003
0.312755
0.310517
0.308291
0.306075
0.303871
0.301677
0.299495
0.297323
0.295163
0.293013
0.290874
0.288747
0.28663
0.284524
0.282429
0.280345
0.278271
0.276209
0.274157
0.272116
0.270085
0.268066
0.266057
0.264059
0.262071
0.260094
0.258128
0.256172
0.254227
0.252292
0.250368
0.248454
0.246551
0.244658
0.242775
0.240903
0.239041
0.23719
0.235348
0.233517
0.231696
0.229886
0.228085
0.226294
0.224514
0.222744
0.220983
0.219233
0.217493
0.215762
0.214041
0.212331
0.21063
0.208939
0.207257
0.205585
0.203923
0.202271
0.200628
0.198995
0.197371
0.195757
0.194152
0.192557
0.190971
0.189394
0.187827
0.186269
0.18472
0.183181
0.18165
0.180129
0.178617
0.177114
0.17562
0.174135
0.172659
0.171192
0.169733
0.168284
0.166843
0.165411
0.163988
0.162573
0.161167
0.15977
0.158381
0.157001
0.155629
0.154266
0.152911
0.151565
0.150226
0.148897
0.147575
0.146261
0.144956
0.143659
0.14237
0.141089
0.139816
0.138551
0.137294
0.136045
0.134804
0.133571
0.132345
0.131127
0.129917
0.128715
0.12752
0.126333
0.125153
0.123981
0.122816
0.121659
0.12051
0.119367
0.118232
0.117104
0.115984
0.11487
0.113764
0.112665
0.111573
0.110489
0.109411
0.10834
0.107276
0.106219
0.105169
0.104126
0.10309
0.10206
0.101037
0.100021
0.0990114
0.0980085
0.0970122
0.0960224
0.0950391
0.0940623
0.093092
0.092128
0.0911704
0.0902192
0.0892742
0.0883355
0.0874031
0.0864768
0.0855567
0.0846427
0.0837347
0.0828329
0.081937
0.0810471
0.0801632
0.0792852
0.0784131
0.0775468
0.0766863
0.0758316
0.0749826
0.0741393
0.0733017
0.0724698
0.0716434
0.0708227
0.0700074
0.0691977
0.0683935
0.0675947
0.0668013
0.0660132
0.0652306
0.0644532
0.0636811
0.0629143
0.0621527
0.0613962
0.060645
0.0598988
0.0591577
0.0584217
0.0576908
0.0569648
0.0562438
0.0555277
0.0548165
0.0541102
0.0534088
0.0527122
0.0520203
0.0513333
0.0506509
0.0499732
0.0493002
0.0486319
0.0479681
0.047309
0.0466544
0.0460043
0.0453587
0.0447176
0.0440809
0.0434486
0.0428207
0.0421972
0.041578
0.0409631
0.0403524
0.039746
0.0391439
0.0385459
0.0379521
0.0373624
0.0367768
0.0361953
0.0356179
0.0350445
0.0344751
0.0339097
0.0333482
0.0327907
0.0322371
0.0316873
0.0311414
0.0305994
0.0300611
0.0295266
0.0289959
0.0284689
0.0279456
0.0274259
0.02691
0.0263976
0.0258889
0.0253838
0.0248822
0.0243842
0.0238896
0.0233986
0.022911
0.0224269
0.0219462
0.0214689
0.0209949
0.0205244
0.0200571
0.0195932
0.0191325
0.0186752
0.018221
0.0177701
0.0173224
0.0168778
0.0164365
0.0159982
0.0155631
0.0151311
0.0147021
0.0142762
0.0138533
0.0134334
0.0130166
0.0126027
0.0121917
0.0117837
0.0113786
0.0109764
0.010577
0.0101806
0.0097869
0.00939606
0.00900801
0.00862274
0.00824022
0.00786045
0.00748339
0.00710903
0.00673736
0.00636835
0.00600199
0.00563825
0.00527712
0.00491859
0.00456263
0.00420922
0.00385836
0.00351001
0.00316417
0.00282082
0.00247993
0.0021415
0.0018055
0.00147193
0.00114075
0.00081196
0.000485538
0.00016147
)
;

boundaryField
{
    bottom
    {
        type            fixedValue;
        value           uniform 0.591956;
    }
    top
    {
        type            fixedValue;
        value           uniform 0;
    }
    sidesX
    {
        type            empty;
    }
    sidesY
    {
        type            empty;
    }
}


// ************************************************************************* //
