/*--------------------------------*- C++ -*----------------------------------*\
| =========                 |                                                 |
| \\      /  F ield         | OpenFOAM: The Open Source CFD Toolbox           |
|  \\    /   O peration     | Version:  v2012                                 |
|   \\  /    A nd           | Website:  www.openfoam.com                      |
|    \\/     M anipulation  |                                                 |
\*---------------------------------------------------------------------------*/
FoamFile
{
    version     2.0;
    format      ascii;
    class       volScalarField;
    location    "50";
    object      wb;
}
// * * * * * * * * * * * * * * * * * * * * * * * * * * * * * * * * * * * * * //

dimensions      [0 0 0 0 0 0 0];


internalField   nonuniform List<scalar> 
400
(
0.501364
0.504096
0.506823
0.509544
0.512259
0.514968
0.517671
0.520367
0.523058
0.525742
0.528419
0.53109
0.533754
0.536412
0.539063
0.541707
0.544344
0.546974
0.549597
0.552213
0.554821
0.557422
0.560016
0.562602
0.565181
0.567752
0.570315
0.572871
0.575419
0.577959
0.580491
0.583016
0.585532
0.58804
0.59054
0.593032
0.595515
0.59799
0.600457
0.602916
0.605366
0.607807
0.61024
0.612665
0.615081
0.617488
0.619887
0.622276
0.624657
0.62703
0.629393
0.631747
0.634093
0.63643
0.638758
0.641076
0.643386
0.645687
0.647978
0.650261
0.652534
0.654798
0.657053
0.659299
0.661536
0.663763
0.665982
0.66819
0.67039
0.67258
0.674761
0.676933
0.679096
0.681249
0.683392
0.685527
0.687652
0.689767
0.691873
0.69397
0.696058
0.698136
0.700204
0.702263
0.704313
0.706353
0.708384
0.710406
0.712418
0.71442
0.716414
0.718398
0.720372
0.722337
0.724293
0.726239
0.728176
0.730103
0.732021
0.73393
0.735829
0.737719
0.7396
0.741471
0.743333
0.745186
0.74703
0.748864
0.750689
0.752504
0.754311
0.756108
0.757896
0.759675
0.761444
0.763205
0.764956
0.766698
0.768431
0.770155
0.77187
0.773576
0.775273
0.776961
0.77864
0.780309
0.78197
0.783622
0.785265
0.7869
0.788525
0.790141
0.791749
0.793348
0.794938
0.796519
0.798092
0.799656
0.801211
0.802758
0.804296
0.805826
0.807346
0.808859
0.810363
0.811858
0.813345
0.814823
0.816293
0.817755
0.819208
0.820653
0.82209
0.823519
0.824939
0.826351
0.827755
0.82915
0.830538
0.831918
0.833289
0.834653
0.836008
0.837355
0.838695
0.840027
0.841351
0.842666
0.843975
0.845275
0.846568
0.847853
0.84913
0.850399
0.851661
0.852916
0.854162
0.855402
0.856634
0.857858
0.859075
0.860284
0.861486
0.862681
0.863869
0.865049
0.866222
0.867388
0.868547
0.869698
0.870843
0.87198
0.87311
0.874233
0.87535
0.876459
0.877562
0.878657
0.879746
0.880828
0.881903
0.882972
0.884033
0.885088
0.886137
0.887178
0.888214
0.889242
0.890264
0.89128
0.892289
0.893292
0.894288
0.895278
0.896262
0.89724
0.898211
0.899176
0.900134
0.901087
0.902033
0.902974
0.903908
0.904836
0.905759
0.906675
0.907585
0.90849
0.909388
0.910281
0.911168
0.912049
0.912925
0.913794
0.914658
0.915517
0.916369
0.917216
0.918058
0.918894
0.919725
0.92055
0.921369
0.922183
0.922992
0.923796
0.924594
0.925387
0.926174
0.926957
0.927734
0.928506
0.929273
0.930035
0.930791
0.931543
0.93229
0.933031
0.933768
0.9345
0.935226
0.935948
0.936665
0.937378
0.938085
0.938788
0.939486
0.940179
0.940868
0.941552
0.942231
0.942906
0.943576
0.944241
0.944903
0.945559
0.946211
0.946859
0.947502
0.948141
0.948776
0.949406
0.950032
0.950654
0.951271
0.951884
0.952493
0.953098
0.953699
0.954295
0.954888
0.955476
0.956061
0.956641
0.957217
0.95779
0.958358
0.958923
0.959483
0.96004
0.960593
0.961142
0.961687
0.962229
0.962767
0.963301
0.963831
0.964358
0.964881
0.9654
0.965916
0.966428
0.966937
0.967442
0.967944
0.968442
0.968936
0.969427
0.969915
0.970399
0.97088
0.971358
0.971832
0.972303
0.972771
0.973235
0.973696
0.974154
0.974609
0.97506
0.975508
0.975954
0.976396
0.976834
0.97727
0.977703
0.978133
0.978559
0.978983
0.979404
0.979821
0.980236
0.980648
0.981057
0.981463
0.981866
0.982266
0.982664
0.983059
0.98345
0.98384
0.984226
0.984609
0.98499
0.985369
0.985744
0.986117
0.986487
0.986855
0.987219
0.987582
0.987942
0.988299
0.988653
0.989005
0.989355
0.989702
0.990047
0.990389
0.990729
0.991066
0.991401
0.991733
0.992064
0.992391
0.992717
0.99304
0.993361
0.993679
0.993995
0.994309
0.994621
0.99493
0.995238
0.995543
0.995845
0.996146
0.996445
0.996741
0.997035
0.997327
0.997617
0.997905
0.998191
0.998475
0.998757
0.999036
0.999314
0.99959
0.999864
)
;

boundaryField
{
    bottom
    {
        type            calculated;
        value           uniform 0.5;
    }
    top
    {
        type            calculated;
        value           uniform 1;
    }
    sidesX
    {
        type            empty;
    }
    sidesY
    {
        type            empty;
    }
}


// ************************************************************************* //
