/*--------------------------------*- C++ -*----------------------------------*\
| =========                 |                                                 |
| \\      /  F ield         | OpenFOAM: The Open Source CFD Toolbox           |
|  \\    /   O peration     | Version:  v2012                                 |
|   \\  /    A nd           | Website:  www.openfoam.com                      |
|    \\/     M anipulation  |                                                 |
\*---------------------------------------------------------------------------*/
FoamFile
{
    version     2.0;
    format      ascii;
    class       volVectorField;
    location    "199.7";
    object      Na;
}
// * * * * * * * * * * * * * * * * * * * * * * * * * * * * * * * * * * * * * //

dimensions      [1 -2 -1 0 0 0 0];


internalField   nonuniform List<vector> 
100
(
(-0 -0 2.54678e-05)
(-0 -0 2.54522e-05)
(-0 -0 2.54435e-05)
(-0 -0 2.54397e-05)
(-0 -0 2.54392e-05)
(-0 -0 2.54406e-05)
(-0 -0 2.54431e-05)
(-0 -0 2.54461e-05)
(-0 -0 2.54492e-05)
(-0 -0 2.54521e-05)
(-0 -0 2.54548e-05)
(-0 -0 2.54572e-05)
(-0 -0 2.54594e-05)
(-0 -0 2.54612e-05)
(-0 -0 2.54628e-05)
(-0 -0 2.54642e-05)
(-0 -0 2.54654e-05)
(-0 -0 2.54664e-05)
(-0 -0 2.54674e-05)
(-0 -0 2.54682e-05)
(-0 -0 2.54689e-05)
(-0 -0 2.54695e-05)
(-0 -0 2.54701e-05)
(-0 -0 2.54706e-05)
(-0 -0 2.5471e-05)
(-0 -0 2.54715e-05)
(-0 -0 2.54718e-05)
(-0 -0 2.54722e-05)
(-0 -0 2.54725e-05)
(-0 -0 2.54728e-05)
(-0 -0 2.5473e-05)
(-0 -0 2.54733e-05)
(-0 -0 2.54735e-05)
(-0 -0 2.54737e-05)
(-0 -0 2.54739e-05)
(-0 -0 2.54741e-05)
(-0 -0 2.54742e-05)
(-0 -0 2.54744e-05)
(-0 -0 2.54745e-05)
(-0 -0 2.54747e-05)
(-0 -0 2.54748e-05)
(-0 -0 2.54749e-05)
(-0 -0 2.5475e-05)
(-0 -0 2.54751e-05)
(-0 -0 2.54752e-05)
(-0 -0 2.54753e-05)
(-0 -0 2.54754e-05)
(-0 -0 2.54755e-05)
(-0 -0 2.54756e-05)
(-0 -0 2.54756e-05)
(-0 -0 2.54757e-05)
(-0 -0 2.54758e-05)
(-0 -0 2.54758e-05)
(-0 -0 2.54759e-05)
(-0 -0 2.5476e-05)
(-0 -0 2.5476e-05)
(-0 -0 2.54761e-05)
(-0 -0 2.54761e-05)
(-0 -0 2.54762e-05)
(-0 -0 2.54762e-05)
(-0 -0 2.54762e-05)
(-0 -0 2.54763e-05)
(-0 -0 2.54763e-05)
(-0 -0 2.54764e-05)
(-0 -0 2.54764e-05)
(-0 -0 2.54764e-05)
(-0 -0 2.54765e-05)
(-0 -0 2.54765e-05)
(-0 -0 2.54765e-05)
(-0 -0 2.54766e-05)
(-0 -0 2.54766e-05)
(-0 -0 2.54766e-05)
(-0 -0 2.54766e-05)
(-0 -0 2.54767e-05)
(-0 -0 2.54767e-05)
(-0 -0 2.54767e-05)
(-0 -0 2.54767e-05)
(-0 -0 2.54768e-05)
(-0 -0 2.54768e-05)
(-0 -0 2.54768e-05)
(-0 -0 2.54768e-05)
(-0 -0 2.54768e-05)
(-0 -0 2.54769e-05)
(-0 -0 2.54769e-05)
(-0 -0 2.54769e-05)
(-0 -0 2.54769e-05)
(-0 -0 2.54769e-05)
(-0 -0 2.54769e-05)
(-0 -0 2.5477e-05)
(-0 -0 2.5477e-05)
(-0 -0 2.5477e-05)
(-0 -0 2.5477e-05)
(-0 -0 2.5477e-05)
(-0 -0 2.5477e-05)
(-0 -0 2.5477e-05)
(-0 -0 2.5477e-05)
(-0 -0 2.54771e-05)
(-0 -0 2.54771e-05)
(-0 -0 2.54772e-05)
(-0 -0 2.54775e-05)
)
;

boundaryField
{
    bottom
    {
        type            calculated;
        value           uniform (-0 -0 2.54776e-05);
    }
    top
    {
        type            calculated;
        value           uniform (-0 -0 2.54776e-05);
    }
    sidesX
    {
        type            empty;
    }
    sidesY
    {
        type            empty;
    }
}


// ************************************************************************* //
