/*--------------------------------*- C++ -*----------------------------------*\
| =========                 |                                                 |
| \\      /  F ield         | OpenFOAM: The Open Source CFD Toolbox           |
|  \\    /   O peration     | Version:  v2012                                 |
|   \\  /    A nd           | Website:  www.openfoam.com                      |
|    \\/     M anipulation  |                                                 |
\*---------------------------------------------------------------------------*/
FoamFile
{
    version     2.0;
    format      ascii;
    class       volVectorField;
    location    "199.7";
    object      Nb;
}
// * * * * * * * * * * * * * * * * * * * * * * * * * * * * * * * * * * * * * //

dimensions      [1 -2 -1 0 0 0 0];


internalField   nonuniform List<vector> 
100
(
(-0 -0 -1.67587e-05)
(-0 -0 -1.67483e-05)
(-0 -0 -1.67426e-05)
(-0 -0 -1.67402e-05)
(-0 -0 -1.67398e-05)
(-0 -0 -1.67407e-05)
(-0 -0 -1.67424e-05)
(-0 -0 -1.67444e-05)
(-0 -0 -1.67464e-05)
(-0 -0 -1.67483e-05)
(-0 -0 -1.67501e-05)
(-0 -0 -1.67517e-05)
(-0 -0 -1.67531e-05)
(-0 -0 -1.67543e-05)
(-0 -0 -1.67553e-05)
(-0 -0 -1.67563e-05)
(-0 -0 -1.6757e-05)
(-0 -0 -1.67577e-05)
(-0 -0 -1.67583e-05)
(-0 -0 -1.67589e-05)
(-0 -0 -1.67593e-05)
(-0 -0 -1.67598e-05)
(-0 -0 -1.67601e-05)
(-0 -0 -1.67605e-05)
(-0 -0 -1.67608e-05)
(-0 -0 -1.6761e-05)
(-0 -0 -1.67613e-05)
(-0 -0 -1.67615e-05)
(-0 -0 -1.67617e-05)
(-0 -0 -1.67619e-05)
(-0 -0 -1.67621e-05)
(-0 -0 -1.67622e-05)
(-0 -0 -1.67624e-05)
(-0 -0 -1.67625e-05)
(-0 -0 -1.67626e-05)
(-0 -0 -1.67628e-05)
(-0 -0 -1.67629e-05)
(-0 -0 -1.6763e-05)
(-0 -0 -1.67631e-05)
(-0 -0 -1.67632e-05)
(-0 -0 -1.67632e-05)
(-0 -0 -1.67633e-05)
(-0 -0 -1.67634e-05)
(-0 -0 -1.67635e-05)
(-0 -0 -1.67635e-05)
(-0 -0 -1.67636e-05)
(-0 -0 -1.67636e-05)
(-0 -0 -1.67637e-05)
(-0 -0 -1.67637e-05)
(-0 -0 -1.67638e-05)
(-0 -0 -1.67638e-05)
(-0 -0 -1.67639e-05)
(-0 -0 -1.67639e-05)
(-0 -0 -1.6764e-05)
(-0 -0 -1.6764e-05)
(-0 -0 -1.6764e-05)
(-0 -0 -1.67641e-05)
(-0 -0 -1.67641e-05)
(-0 -0 -1.67641e-05)
(-0 -0 -1.67642e-05)
(-0 -0 -1.67642e-05)
(-0 -0 -1.67642e-05)
(-0 -0 -1.67642e-05)
(-0 -0 -1.67643e-05)
(-0 -0 -1.67643e-05)
(-0 -0 -1.67643e-05)
(-0 -0 -1.67643e-05)
(-0 -0 -1.67644e-05)
(-0 -0 -1.67644e-05)
(-0 -0 -1.67644e-05)
(-0 -0 -1.67644e-05)
(-0 -0 -1.67644e-05)
(-0 -0 -1.67644e-05)
(-0 -0 -1.67645e-05)
(-0 -0 -1.67645e-05)
(-0 -0 -1.67645e-05)
(-0 -0 -1.67645e-05)
(-0 -0 -1.67645e-05)
(-0 -0 -1.67645e-05)
(-0 -0 -1.67646e-05)
(-0 -0 -1.67646e-05)
(-0 -0 -1.67646e-05)
(-0 -0 -1.67646e-05)
(-0 -0 -1.67646e-05)
(-0 -0 -1.67646e-05)
(-0 -0 -1.67646e-05)
(-0 -0 -1.67646e-05)
(-0 -0 -1.67646e-05)
(-0 -0 -1.67647e-05)
(-0 -0 -1.67647e-05)
(-0 -0 -1.67647e-05)
(-0 -0 -1.67647e-05)
(-0 -0 -1.67647e-05)
(-0 -0 -1.67647e-05)
(-0 -0 -1.67647e-05)
(-0 -0 -1.67647e-05)
(-0 -0 -1.67647e-05)
(-0 -0 -1.67648e-05)
(-0 -0 -1.67648e-05)
(-0 -0 -1.6765e-05)
)
;

boundaryField
{
    bottom
    {
        type            calculated;
        value           uniform (-0 -0 -1.67651e-05);
    }
    top
    {
        type            calculated;
        value           uniform (-0 -0 -1.67651e-05);
    }
    sidesX
    {
        type            empty;
    }
    sidesY
    {
        type            empty;
    }
}


// ************************************************************************* //
