/*--------------------------------*- C++ -*----------------------------------*\
| =========                 |                                                 |
| \\      /  F ield         | OpenFOAM: The Open Source CFD Toolbox           |
|  \\    /   O peration     | Version:  v2012                                 |
|   \\  /    A nd           | Website:  www.openfoam.com                      |
|    \\/     M anipulation  |                                                 |
\*---------------------------------------------------------------------------*/
FoamFile
{
    version     2.0;
    format      ascii;
    class       volVectorField;
    location    "48.5";
    object      Nb;
}
// * * * * * * * * * * * * * * * * * * * * * * * * * * * * * * * * * * * * * //

dimensions      [1 -2 -1 0 0 0 0];


internalField   nonuniform List<vector> 
100
(
(-0 -0 -8.89385e-20)
(-0 -0 9.61382e-20)
(-0 -0 -1.10538e-19)
(-0 -0 1.09267e-19)
(-0 -0 2.96462e-20)
(-0 -0 -1.00797e-19)
(-0 -0 -2.5411e-20)
(-0 -0 6.77626e-20)
(-0 -0 2.87991e-20)
(-0 -0 3.04932e-20)
(-0 -0 -1.04185e-19)
(-0 -0 1.2282e-19)
(-0 -0 -1.10114e-19)
(-0 -0 -3.04932e-20)
(-0 -0 5.0822e-20)
(-0 -0 8.30092e-20)
(-0 -0 -6.43745e-20)
(-0 -0 -3.89635e-20)
(-0 -0 1.4569e-19)
(-0 -0 -1.89735e-19)
(-0 -0 7.96211e-20)
(-0 -0 7.7927e-20)
(-0 -0 -2.0837e-19)
(-0 -0 2.60886e-19)
(-0 -0 0)
(-0 -0 -1.81265e-19)
(-0 -0 -3.38813e-21)
(-0 -0 0)
(-0 -0 0)
(-0 -0 5.42101e-20)
(-0 -0 1.59242e-19)
(-0 -0 -1.15196e-19)
(-0 -0 -1.0842e-19)
(-0 -0 0)
(-0 -0 3.38813e-21)
(-0 -0 1.28749e-19)
(-0 -0 -1.28749e-19)
(-0 -0 -3.38813e-21)
(-0 -0 -3.38813e-21)
(-0 -0 -3.38813e-21)
(-0 -0 1.49078e-19)
(-0 -0 -1.49078e-19)
(-0 -0 1.49078e-19)
(-0 -0 -3.38813e-21)
(-0 -0 3.38813e-21)
(-0 -0 0)
(-0 -0 -1.69407e-19)
(-0 -0 0)
(-0 -0 1.82959e-19)
(-0 -0 -1.89735e-19)
(-0 -0 3.86247e-19)
(-0 -0 -3.998e-19)
(-0 -0 6.77626e-21)
(-0 -0 6.77626e-21)
(-0 -0 0)
(-0 -0 4.47233e-19)
(-0 -0 -4.74338e-19)
(-0 -0 2.37169e-19)
(-0 -0 -1.28749e-19)
(-0 -0 0)
(-0 -0 -1.35525e-19)
(-0 -0 1.35525e-19)
(-0 -0 1.42302e-19)
(-0 -0 2.91379e-19)
(-0 -0 -4.47233e-19)
(-0 -0 3.18484e-19)
(-0 -0 -7.86047e-19)
(-0 -0 3.25261e-19)
(-0 -0 -1.69407e-19)
(-0 -0 5.14996e-19)
(-0 -0 1.76183e-19)
(-0 -0 -5.48877e-19)
(-0 -0 -1.89735e-19)
(-0 -0 5.89535e-19)
(-0 -0 -9.48677e-20)
(-0 -0 6.09864e-19)
(-0 -0 -5.42101e-19)
(-0 -0 -6.50521e-19)
(-0 -0 2.30393e-19)
(-0 -0 -3.45589e-19)
(-0 -0 1.21973e-19)
(-0 -0 8.67362e-19)
(-0 -0 -6.77626e-21)
(-0 -0 -3.93023e-19)
(-0 -0 1.28749e-19)
(-0 -0 1.96512e-19)
(-0 -0 1.42302e-19)
(-0 -0 -1.42302e-19)
(-0 -0 -6.77626e-21)
(-0 -0 -7.18284e-19)
(-0 -0 3.45589e-19)
(-0 -0 -4.60786e-19)
(-0 -0 2.10064e-19)
(-0 -0 -1.42979e-18)
(-0 -0 3.86247e-19)
(-0 -0 1.18585e-18)
(-0 -0 8.74138e-19)
(-0 -0 -2.20229e-18)
(-0 -0 2.26327e-18)
(-0 -0 -1.11131e-18)
)
;

boundaryField
{
    bottom
    {
        type            calculated;
        value           uniform (-0 -0 -2.11758e-21);
    }
    top
    {
        type            calculated;
        value           uniform (-0 -0 1.21295e-18);
    }
    sidesX
    {
        type            empty;
    }
    sidesY
    {
        type            empty;
    }
}


// ************************************************************************* //
