/*--------------------------------*- C++ -*----------------------------------*\
| =========                 |                                                 |
| \\      /  F ield         | OpenFOAM: The Open Source CFD Toolbox           |
|  \\    /   O peration     | Version:  v2012                                 |
|   \\  /    A nd           | Website:  www.openfoam.com                      |
|    \\/     M anipulation  |                                                 |
\*---------------------------------------------------------------------------*/
FoamFile
{
    version     2.0;
    format      ascii;
    class       volVectorField;
    location    "0.8";
    object      jb;
}
// * * * * * * * * * * * * * * * * * * * * * * * * * * * * * * * * * * * * * //

dimensions      [1 -2 -1 0 0 0 0];


internalField   nonuniform List<vector> 
300
(
(-0 -0 -1.22002e-05)
(-0 -0 -1.22111e-05)
(-0 -0 -1.22226e-05)
(-0 -0 -1.2234e-05)
(-0 -0 -1.22455e-05)
(-0 -0 -1.2257e-05)
(-0 -0 -1.22685e-05)
(-0 -0 -1.228e-05)
(-0 -0 -1.22914e-05)
(-0 -0 -1.23029e-05)
(-0 -0 -1.23144e-05)
(-0 -0 -1.23259e-05)
(-0 -0 -1.23374e-05)
(-0 -0 -1.23488e-05)
(-0 -0 -1.23603e-05)
(-0 -0 -1.23718e-05)
(-0 -0 -1.23833e-05)
(-0 -0 -1.23948e-05)
(-0 -0 -1.24062e-05)
(-0 -0 -1.24177e-05)
(-0 -0 -1.24292e-05)
(-0 -0 -1.24407e-05)
(-0 -0 -1.24522e-05)
(-0 -0 -1.24636e-05)
(-0 -0 -1.24751e-05)
(-0 -0 -1.24866e-05)
(-0 -0 -1.24981e-05)
(-0 -0 -1.25096e-05)
(-0 -0 -1.25211e-05)
(-0 -0 -1.25325e-05)
(-0 -0 -1.2544e-05)
(-0 -0 -1.25555e-05)
(-0 -0 -1.2567e-05)
(-0 -0 -1.25785e-05)
(-0 -0 -1.25899e-05)
(-0 -0 -1.26014e-05)
(-0 -0 -1.26129e-05)
(-0 -0 -1.26244e-05)
(-0 -0 -1.26359e-05)
(-0 -0 -1.26473e-05)
(-0 -0 -1.26588e-05)
(-0 -0 -1.26703e-05)
(-0 -0 -1.26818e-05)
(-0 -0 -1.26933e-05)
(-0 -0 -1.27047e-05)
(-0 -0 -1.27162e-05)
(-0 -0 -1.27277e-05)
(-0 -0 -1.27392e-05)
(-0 -0 -1.27507e-05)
(-0 -0 -1.27621e-05)
(-0 -0 -1.27736e-05)
(-0 -0 -1.27851e-05)
(-0 -0 -1.27966e-05)
(-0 -0 -1.28081e-05)
(-0 -0 -1.28195e-05)
(-0 -0 -1.2831e-05)
(-0 -0 -1.28425e-05)
(-0 -0 -1.2854e-05)
(-0 -0 -1.28655e-05)
(-0 -0 -1.2877e-05)
(-0 -0 -1.28884e-05)
(-0 -0 -1.28999e-05)
(-0 -0 -1.29114e-05)
(-0 -0 -1.29229e-05)
(-0 -0 -1.29344e-05)
(-0 -0 -1.29458e-05)
(-0 -0 -1.29573e-05)
(-0 -0 -1.29688e-05)
(-0 -0 -1.29803e-05)
(-0 -0 -1.29918e-05)
(-0 -0 -1.30032e-05)
(-0 -0 -1.30147e-05)
(-0 -0 -1.30262e-05)
(-0 -0 -1.30377e-05)
(-0 -0 -1.30492e-05)
(-0 -0 -1.30606e-05)
(-0 -0 -1.30721e-05)
(-0 -0 -1.30836e-05)
(-0 -0 -1.30951e-05)
(-0 -0 -1.31066e-05)
(-0 -0 -1.3118e-05)
(-0 -0 -1.31295e-05)
(-0 -0 -1.3141e-05)
(-0 -0 -1.31525e-05)
(-0 -0 -1.3164e-05)
(-0 -0 -1.31754e-05)
(-0 -0 -1.31869e-05)
(-0 -0 -1.31984e-05)
(-0 -0 -1.32099e-05)
(-0 -0 -1.32214e-05)
(-0 -0 -1.32329e-05)
(-0 -0 -1.32443e-05)
(-0 -0 -1.32558e-05)
(-0 -0 -1.32673e-05)
(-0 -0 -1.32788e-05)
(-0 -0 -1.32903e-05)
(-0 -0 -1.33017e-05)
(-0 -0 -1.33132e-05)
(-0 -0 -1.33247e-05)
(-0 -0 -1.33362e-05)
(-0 -0 -1.33477e-05)
(-0 -0 -1.33591e-05)
(-0 -0 -1.33706e-05)
(-0 -0 -1.33821e-05)
(-0 -0 -1.33936e-05)
(-0 -0 -1.34051e-05)
(-0 -0 -1.34165e-05)
(-0 -0 -1.3428e-05)
(-0 -0 -1.34395e-05)
(-0 -0 -1.3451e-05)
(-0 -0 -1.34625e-05)
(-0 -0 -1.34739e-05)
(-0 -0 -1.34854e-05)
(-0 -0 -1.34969e-05)
(-0 -0 -1.35084e-05)
(-0 -0 -1.35199e-05)
(-0 -0 -1.35313e-05)
(-0 -0 -1.35428e-05)
(-0 -0 -1.35543e-05)
(-0 -0 -1.35658e-05)
(-0 -0 -1.35773e-05)
(-0 -0 -1.35887e-05)
(-0 -0 -1.36002e-05)
(-0 -0 -1.36117e-05)
(-0 -0 -1.36232e-05)
(-0 -0 -1.36347e-05)
(-0 -0 -1.36462e-05)
(-0 -0 -1.36576e-05)
(-0 -0 -1.36691e-05)
(-0 -0 -1.36806e-05)
(-0 -0 -1.36921e-05)
(-0 -0 -1.37036e-05)
(-0 -0 -1.3715e-05)
(-0 -0 -1.37265e-05)
(-0 -0 -1.3738e-05)
(-0 -0 -1.37495e-05)
(-0 -0 -1.3761e-05)
(-0 -0 -1.37724e-05)
(-0 -0 -1.37839e-05)
(-0 -0 -1.37954e-05)
(-0 -0 -1.38069e-05)
(-0 -0 -1.38184e-05)
(-0 -0 -1.38298e-05)
(-0 -0 -1.38413e-05)
(-0 -0 -1.38528e-05)
(-0 -0 -1.38643e-05)
(-0 -0 -1.38758e-05)
(-0 -0 -1.38872e-05)
(-0 -0 -1.38987e-05)
(-0 -0 -1.39102e-05)
(-0 -0 -1.39217e-05)
(-0 -0 -1.39332e-05)
(-0 -0 -1.39446e-05)
(-0 -0 -1.39561e-05)
(-0 -0 -1.39676e-05)
(-0 -0 -1.39791e-05)
(-0 -0 -1.39906e-05)
(-0 -0 -1.40021e-05)
(-0 -0 -1.40135e-05)
(-0 -0 -1.4025e-05)
(-0 -0 -1.40365e-05)
(-0 -0 -1.4048e-05)
(-0 -0 -1.40595e-05)
(-0 -0 -1.40709e-05)
(-0 -0 -1.40824e-05)
(-0 -0 -1.40939e-05)
(-0 -0 -1.41054e-05)
(-0 -0 -1.41169e-05)
(-0 -0 -1.41283e-05)
(-0 -0 -1.41398e-05)
(-0 -0 -1.41513e-05)
(-0 -0 -1.41628e-05)
(-0 -0 -1.41743e-05)
(-0 -0 -1.41857e-05)
(-0 -0 -1.41972e-05)
(-0 -0 -1.42087e-05)
(-0 -0 -1.42202e-05)
(-0 -0 -1.42317e-05)
(-0 -0 -1.42431e-05)
(-0 -0 -1.42546e-05)
(-0 -0 -1.42661e-05)
(-0 -0 -1.42776e-05)
(-0 -0 -1.42891e-05)
(-0 -0 -1.43005e-05)
(-0 -0 -1.4312e-05)
(-0 -0 -1.43235e-05)
(-0 -0 -1.4335e-05)
(-0 -0 -1.43465e-05)
(-0 -0 -1.4358e-05)
(-0 -0 -1.43694e-05)
(-0 -0 -1.43809e-05)
(-0 -0 -1.43924e-05)
(-0 -0 -1.44039e-05)
(-0 -0 -1.44154e-05)
(-0 -0 -1.44268e-05)
(-0 -0 -1.44383e-05)
(-0 -0 -1.44498e-05)
(-0 -0 -1.44613e-05)
(-0 -0 -1.44728e-05)
(-0 -0 -1.44842e-05)
(-0 -0 -1.44957e-05)
(-0 -0 -1.45072e-05)
(-0 -0 -1.45187e-05)
(-0 -0 -1.45302e-05)
(-0 -0 -1.45416e-05)
(-0 -0 -1.45531e-05)
(-0 -0 -1.45646e-05)
(-0 -0 -1.45761e-05)
(-0 -0 -1.45876e-05)
(-0 -0 -1.4599e-05)
(-0 -0 -1.46105e-05)
(-0 -0 -1.4622e-05)
(-0 -0 -1.46335e-05)
(-0 -0 -1.4645e-05)
(-0 -0 -1.46564e-05)
(-0 -0 -1.46679e-05)
(-0 -0 -1.46794e-05)
(-0 -0 -1.46909e-05)
(-0 -0 -1.47024e-05)
(-0 -0 -1.47138e-05)
(-0 -0 -1.47253e-05)
(-0 -0 -1.47368e-05)
(-0 -0 -1.47483e-05)
(-0 -0 -1.47598e-05)
(-0 -0 -1.47713e-05)
(-0 -0 -1.47827e-05)
(-0 -0 -1.47942e-05)
(-0 -0 -1.48057e-05)
(-0 -0 -1.48172e-05)
(-0 -0 -1.48287e-05)
(-0 -0 -1.48401e-05)
(-0 -0 -1.48516e-05)
(-0 -0 -1.48631e-05)
(-0 -0 -1.48746e-05)
(-0 -0 -1.48861e-05)
(-0 -0 -1.48975e-05)
(-0 -0 -1.4909e-05)
(-0 -0 -1.49205e-05)
(-0 -0 -1.4932e-05)
(-0 -0 -1.49435e-05)
(-0 -0 -1.49549e-05)
(-0 -0 -1.49664e-05)
(-0 -0 -1.49779e-05)
(-0 -0 -1.49894e-05)
(-0 -0 -1.50009e-05)
(-0 -0 -1.50123e-05)
(-0 -0 -1.50238e-05)
(-0 -0 -1.50353e-05)
(-0 -0 -1.50468e-05)
(-0 -0 -1.50583e-05)
(-0 -0 -1.50697e-05)
(-0 -0 -1.50812e-05)
(-0 -0 -1.50927e-05)
(-0 -0 -1.51042e-05)
(-0 -0 -1.51157e-05)
(-0 -0 -1.51272e-05)
(-0 -0 -1.51386e-05)
(-0 -0 -1.51501e-05)
(-0 -0 -1.51616e-05)
(-0 -0 -1.51731e-05)
(-0 -0 -1.51846e-05)
(-0 -0 -1.5196e-05)
(-0 -0 -1.52075e-05)
(-0 -0 -1.5219e-05)
(-0 -0 -1.52305e-05)
(-0 -0 -1.5242e-05)
(-0 -0 -1.52534e-05)
(-0 -0 -1.52649e-05)
(-0 -0 -1.52764e-05)
(-0 -0 -1.52879e-05)
(-0 -0 -1.52994e-05)
(-0 -0 -1.53108e-05)
(-0 -0 -1.53223e-05)
(-0 -0 -1.53338e-05)
(-0 -0 -1.53453e-05)
(-0 -0 -1.53568e-05)
(-0 -0 -1.53682e-05)
(-0 -0 -1.53797e-05)
(-0 -0 -1.53912e-05)
(-0 -0 -1.54027e-05)
(-0 -0 -1.54142e-05)
(-0 -0 -1.54256e-05)
(-0 -0 -1.54371e-05)
(-0 -0 -1.54486e-05)
(-0 -0 -1.54601e-05)
(-0 -0 -1.54716e-05)
(-0 -0 -1.5483e-05)
(-0 -0 -1.54945e-05)
(-0 -0 -1.5506e-05)
(-0 -0 -1.55175e-05)
(-0 -0 -1.5529e-05)
(-0 -0 -1.55405e-05)
(-0 -0 -1.55519e-05)
(-0 -0 -1.55634e-05)
(-0 -0 -1.55749e-05)
(-0 -0 -1.55864e-05)
(-0 -0 -1.55979e-05)
(-0 -0 -1.56093e-05)
(-0 -0 -1.56208e-05)
(-0 -0 -1.56331e-05)
)
;

boundaryField
{
    bottom
    {
        type            calculated;
        value           uniform (-0 -0 -1.21951e-05);
    }
    top
    {
        type            calculated;
        value           uniform (-0 -0 -1.56397e-05);
    }
    sidesX
    {
        type            empty;
    }
    sidesY
    {
        type            empty;
    }
}


// ************************************************************************* //
