/*--------------------------------*- C++ -*----------------------------------*\
| =========                 |                                                 |
| \\      /  F ield         | OpenFOAM: The Open Source CFD Toolbox           |
|  \\    /   O peration     | Version:  v2012                                 |
|   \\  /    A nd           | Website:  www.openfoam.com                      |
|    \\/     M anipulation  |                                                 |
\*---------------------------------------------------------------------------*/
FoamFile
{
    version     2.0;
    format      ascii;
    class       surfaceScalarField;
    location    "0.7";
    object      phi;
}
// * * * * * * * * * * * * * * * * * * * * * * * * * * * * * * * * * * * * * //

dimensions      [0 3 -1 0 0 0 0];
oriented        oriented;


internalField   nonuniform List<scalar> 
299
(
1.09347e-08
1.09245e-08
1.09142e-08
1.0904e-08
1.08937e-08
1.08835e-08
1.08734e-08
1.08632e-08
1.08531e-08
1.08429e-08
1.08328e-08
1.08228e-08
1.08127e-08
1.08026e-08
1.07926e-08
1.07826e-08
1.07726e-08
1.07626e-08
1.07527e-08
1.07427e-08
1.07328e-08
1.07229e-08
1.0713e-08
1.07032e-08
1.06933e-08
1.06835e-08
1.06737e-08
1.06639e-08
1.06541e-08
1.06444e-08
1.06346e-08
1.06249e-08
1.06152e-08
1.06055e-08
1.05959e-08
1.05862e-08
1.05766e-08
1.0567e-08
1.05574e-08
1.05478e-08
1.05382e-08
1.05287e-08
1.05192e-08
1.05097e-08
1.05002e-08
1.04907e-08
1.04812e-08
1.04718e-08
1.04624e-08
1.0453e-08
1.04436e-08
1.04342e-08
1.04248e-08
1.04155e-08
1.04062e-08
1.03969e-08
1.03876e-08
1.03783e-08
1.0369e-08
1.03598e-08
1.03506e-08
1.03414e-08
1.03322e-08
1.0323e-08
1.03138e-08
1.03047e-08
1.02956e-08
1.02865e-08
1.02774e-08
1.02683e-08
1.02592e-08
1.02502e-08
1.02412e-08
1.02321e-08
1.02231e-08
1.02142e-08
1.02052e-08
1.01962e-08
1.01873e-08
1.01784e-08
1.01695e-08
1.01606e-08
1.01517e-08
1.01429e-08
1.0134e-08
1.01252e-08
1.01164e-08
1.01076e-08
1.00988e-08
1.009e-08
1.00813e-08
1.00726e-08
1.00638e-08
1.00551e-08
1.00464e-08
1.00378e-08
1.00291e-08
1.00205e-08
1.00118e-08
1.00032e-08
9.99462e-09
9.98603e-09
9.97746e-09
9.96891e-09
9.96036e-09
9.95184e-09
9.94332e-09
9.93483e-09
9.92634e-09
9.91788e-09
9.90942e-09
9.90098e-09
9.89256e-09
9.88414e-09
9.87575e-09
9.86737e-09
9.859e-09
9.85064e-09
9.8423e-09
9.83398e-09
9.82566e-09
9.81737e-09
9.80908e-09
9.80081e-09
9.79256e-09
9.78432e-09
9.77609e-09
9.76787e-09
9.75967e-09
9.75149e-09
9.74331e-09
9.73515e-09
9.72701e-09
9.71888e-09
9.71076e-09
9.70265e-09
9.69456e-09
9.68648e-09
9.67842e-09
9.67037e-09
9.66233e-09
9.6543e-09
9.64629e-09
9.6383e-09
9.63031e-09
9.62234e-09
9.61438e-09
9.60644e-09
9.59851e-09
9.59059e-09
9.58268e-09
9.57479e-09
9.56691e-09
9.55904e-09
9.55119e-09
9.54335e-09
9.53552e-09
9.5277e-09
9.5199e-09
9.51211e-09
9.50434e-09
9.49657e-09
9.48882e-09
9.48108e-09
9.47335e-09
9.46564e-09
9.45794e-09
9.45025e-09
9.44258e-09
9.43491e-09
9.42726e-09
9.41962e-09
9.41199e-09
9.40438e-09
9.39678e-09
9.38919e-09
9.38161e-09
9.37405e-09
9.36649e-09
9.35895e-09
9.35143e-09
9.34391e-09
9.3364e-09
9.32891e-09
9.32143e-09
9.31396e-09
9.30651e-09
9.29906e-09
9.29163e-09
9.28421e-09
9.2768e-09
9.2694e-09
9.26202e-09
9.25464e-09
9.24728e-09
9.23993e-09
9.23259e-09
9.22527e-09
9.21795e-09
9.21065e-09
9.20336e-09
9.19608e-09
9.18881e-09
9.18155e-09
9.1743e-09
9.16707e-09
9.15985e-09
9.15263e-09
9.14543e-09
9.13825e-09
9.13107e-09
9.1239e-09
9.11675e-09
9.1096e-09
9.10247e-09
9.09535e-09
9.08824e-09
9.08114e-09
9.07405e-09
9.06697e-09
9.0599e-09
9.05285e-09
9.04581e-09
9.03877e-09
9.03175e-09
9.02474e-09
9.01774e-09
9.01075e-09
9.00377e-09
8.9968e-09
8.98984e-09
8.9829e-09
8.97596e-09
8.96904e-09
8.96212e-09
8.95522e-09
8.94832e-09
8.94144e-09
8.93457e-09
8.92771e-09
8.92086e-09
8.91402e-09
8.90719e-09
8.90037e-09
8.89356e-09
8.88676e-09
8.87997e-09
8.87319e-09
8.86642e-09
8.85967e-09
8.85292e-09
8.84618e-09
8.83946e-09
8.83274e-09
8.82603e-09
8.81934e-09
8.81265e-09
8.80598e-09
8.79931e-09
8.79266e-09
8.78601e-09
8.77938e-09
8.77275e-09
8.76613e-09
8.75953e-09
8.75293e-09
8.74635e-09
8.73977e-09
8.73321e-09
8.72665e-09
8.72011e-09
8.71357e-09
8.70704e-09
8.70053e-09
8.69402e-09
8.68752e-09
8.68103e-09
8.67456e-09
8.66809e-09
8.66163e-09
8.65518e-09
8.64874e-09
8.64231e-09
8.63589e-09
8.62948e-09
8.62308e-09
8.61669e-09
8.61031e-09
8.60393e-09
8.59757e-09
8.59122e-09
8.58487e-09
8.57854e-09
8.57221e-09
8.5659e-09
8.55959e-09
8.55329e-09
8.547e-09
8.54072e-09
)
;

boundaryField
{
    bottom
    {
        type            calculated;
        value           uniform -8.53445e-09;
    }
    top
    {
        type            calculated;
        value           uniform 1.0945e-08;
    }
    sidesX
    {
        type            empty;
        value           nonuniform List<scalar> 0();
    }
    sidesY
    {
        type            empty;
        value           nonuniform List<scalar> 0();
    }
}


// ************************************************************************* //
