/*--------------------------------*- C++ -*----------------------------------*\
| =========                 |                                                 |
| \\      /  F ield         | OpenFOAM: The Open Source CFD Toolbox           |
|  \\    /   O peration     | Version:  v2012                                 |
|   \\  /    A nd           | Website:  www.openfoam.com                      |
|    \\/     M anipulation  |                                                 |
\*---------------------------------------------------------------------------*/
FoamFile
{
    version     2.0;
    format      ascii;
    class       volScalarField;
    location    "0.7";
    object      rho_b;
}
// * * * * * * * * * * * * * * * * * * * * * * * * * * * * * * * * * * * * * //

dimensions      [1 -3 0 0 0 0 0];


internalField   nonuniform List<scalar> 
300
(
0.300579
0.303204
0.305831
0.308461
0.311093
0.313728
0.316365
0.319005
0.321647
0.324291
0.326938
0.329588
0.33224
0.334894
0.337551
0.34021
0.342872
0.345537
0.348203
0.350873
0.353544
0.356218
0.358895
0.361574
0.364256
0.36694
0.369626
0.372315
0.375007
0.377701
0.380397
0.383096
0.385797
0.388501
0.391207
0.393916
0.396627
0.399341
0.402057
0.404776
0.407497
0.410221
0.412947
0.415675
0.418406
0.421139
0.423875
0.426614
0.429355
0.432098
0.434844
0.437592
0.440343
0.443096
0.445852
0.44861
0.45137
0.454133
0.456899
0.459667
0.462437
0.46521
0.467986
0.470764
0.473544
0.476327
0.479112
0.4819
0.48469
0.487483
0.490278
0.493075
0.495876
0.498678
0.501483
0.504291
0.507101
0.509913
0.512728
0.515545
0.518365
0.521188
0.524012
0.52684
0.529669
0.532502
0.535336
0.538173
0.541013
0.543855
0.5467
0.549547
0.552396
0.555248
0.558102
0.560959
0.563819
0.56668
0.569545
0.572411
0.575281
0.578152
0.581027
0.583903
0.586782
0.589664
0.592548
0.595434
0.598323
0.601215
0.604109
0.607005
0.609904
0.612805
0.615709
0.618615
0.621524
0.624435
0.627349
0.630265
0.633184
0.636105
0.639028
0.641954
0.644883
0.647814
0.650747
0.653683
0.656622
0.659562
0.662506
0.665451
0.6684
0.67135
0.674304
0.677259
0.680217
0.683178
0.686141
0.689106
0.692074
0.695045
0.698018
0.700993
0.703971
0.706951
0.709934
0.712919
0.715907
0.718897
0.72189
0.724885
0.727883
0.730883
0.733885
0.73689
0.739898
0.742908
0.74592
0.748935
0.751953
0.754972
0.757995
0.76102
0.764047
0.767077
0.770109
0.773143
0.77618
0.77922
0.782262
0.785307
0.788354
0.791403
0.794455
0.797509
0.800566
0.803626
0.806687
0.809752
0.812818
0.815888
0.818959
0.822033
0.82511
0.828189
0.831271
0.834355
0.837441
0.84053
0.843622
0.846716
0.849812
0.852911
0.856012
0.859116
0.862222
0.865331
0.868442
0.871556
0.874672
0.87779
0.880911
0.884035
0.887161
0.890289
0.89342
0.896554
0.89969
0.902828
0.905969
0.909112
0.912258
0.915406
0.918557
0.92171
0.924866
0.928024
0.931184
0.934347
0.937513
0.940681
0.943851
0.947024
0.950199
0.953377
0.956558
0.95974
0.962926
0.966113
0.969304
0.972496
0.975691
0.978889
0.982089
0.985292
0.988497
0.991704
0.994914
0.998126
1.00134
1.00456
1.00778
1.011
1.01423
1.01745
1.02068
1.02391
1.02715
1.03039
1.03363
1.03687
1.04011
1.04336
1.04661
1.04986
1.05312
1.05637
1.05963
1.06289
1.06616
1.06942
1.07269
1.07597
1.07924
1.08252
1.08579
1.08908
1.09236
1.09565
1.09894
1.10223
1.10552
1.10882
1.11212
1.11542
1.11872
1.12203
1.12534
1.12865
1.13196
1.13528
1.1386
1.14192
1.14524
1.14857
1.15189
1.15523
1.15856
1.1619
1.16523
1.16857
1.17192
1.17526
1.17861
1.18196
1.18532
1.18867
1.19203
1.19539
)
;

boundaryField
{
    bottom
    {
        type            calculated;
        value           uniform 0.299268;
    }
    top
    {
        type            calculated;
        value           uniform 1.19707;
    }
    sidesX
    {
        type            empty;
    }
    sidesY
    {
        type            empty;
    }
}


// ************************************************************************* //
