/*--------------------------------*- C++ -*----------------------------------*\
| =========                 |                                                 |
| \\      /  F ield         | OpenFOAM: The Open Source CFD Toolbox           |
|  \\    /   O peration     | Version:  v2012                                 |
|   \\  /    A nd           | Website:  www.openfoam.com                      |
|    \\/     M anipulation  |                                                 |
\*---------------------------------------------------------------------------*/
FoamFile
{
    version     2.0;
    format      ascii;
    class       volVectorField;
    location    "199.9";
    object      jb;
}
// * * * * * * * * * * * * * * * * * * * * * * * * * * * * * * * * * * * * * //

dimensions      [1 -2 -1 0 0 0 0];


internalField   nonuniform List<vector> 
100
(
(-0 -0 -1.72264e-05)
(-0 -0 -1.72806e-05)
(-0 -0 -1.73396e-05)
(-0 -0 -1.74022e-05)
(-0 -0 -1.74672e-05)
(-0 -0 -1.75339e-05)
(-0 -0 -1.76015e-05)
(-0 -0 -1.76698e-05)
(-0 -0 -1.77383e-05)
(-0 -0 -1.78071e-05)
(-0 -0 -1.78759e-05)
(-0 -0 -1.79449e-05)
(-0 -0 -1.80139e-05)
(-0 -0 -1.80829e-05)
(-0 -0 -1.81521e-05)
(-0 -0 -1.82214e-05)
(-0 -0 -1.82908e-05)
(-0 -0 -1.83604e-05)
(-0 -0 -1.84301e-05)
(-0 -0 -1.85e-05)
(-0 -0 -1.85702e-05)
(-0 -0 -1.86405e-05)
(-0 -0 -1.87111e-05)
(-0 -0 -1.87819e-05)
(-0 -0 -1.88529e-05)
(-0 -0 -1.89241e-05)
(-0 -0 -1.89956e-05)
(-0 -0 -1.90674e-05)
(-0 -0 -1.91393e-05)
(-0 -0 -1.92116e-05)
(-0 -0 -1.92841e-05)
(-0 -0 -1.93568e-05)
(-0 -0 -1.94299e-05)
(-0 -0 -1.95031e-05)
(-0 -0 -1.95767e-05)
(-0 -0 -1.96505e-05)
(-0 -0 -1.97246e-05)
(-0 -0 -1.97989e-05)
(-0 -0 -1.98736e-05)
(-0 -0 -1.99485e-05)
(-0 -0 -2.00236e-05)
(-0 -0 -2.00991e-05)
(-0 -0 -2.01748e-05)
(-0 -0 -2.02508e-05)
(-0 -0 -2.03271e-05)
(-0 -0 -2.04037e-05)
(-0 -0 -2.04806e-05)
(-0 -0 -2.05577e-05)
(-0 -0 -2.06352e-05)
(-0 -0 -2.07129e-05)
(-0 -0 -2.07909e-05)
(-0 -0 -2.08692e-05)
(-0 -0 -2.09478e-05)
(-0 -0 -2.10267e-05)
(-0 -0 -2.11059e-05)
(-0 -0 -2.11854e-05)
(-0 -0 -2.12651e-05)
(-0 -0 -2.13452e-05)
(-0 -0 -2.14256e-05)
(-0 -0 -2.15063e-05)
(-0 -0 -2.15873e-05)
(-0 -0 -2.16686e-05)
(-0 -0 -2.17501e-05)
(-0 -0 -2.1832e-05)
(-0 -0 -2.19142e-05)
(-0 -0 -2.19968e-05)
(-0 -0 -2.20796e-05)
(-0 -0 -2.21627e-05)
(-0 -0 -2.22461e-05)
(-0 -0 -2.23299e-05)
(-0 -0 -2.2414e-05)
(-0 -0 -2.24984e-05)
(-0 -0 -2.25831e-05)
(-0 -0 -2.26681e-05)
(-0 -0 -2.27534e-05)
(-0 -0 -2.28391e-05)
(-0 -0 -2.29251e-05)
(-0 -0 -2.30114e-05)
(-0 -0 -2.3098e-05)
(-0 -0 -2.3185e-05)
(-0 -0 -2.32723e-05)
(-0 -0 -2.33599e-05)
(-0 -0 -2.34478e-05)
(-0 -0 -2.35361e-05)
(-0 -0 -2.36247e-05)
(-0 -0 -2.37136e-05)
(-0 -0 -2.38029e-05)
(-0 -0 -2.38925e-05)
(-0 -0 -2.39824e-05)
(-0 -0 -2.40727e-05)
(-0 -0 -2.41633e-05)
(-0 -0 -2.42543e-05)
(-0 -0 -2.43456e-05)
(-0 -0 -2.44373e-05)
(-0 -0 -2.45293e-05)
(-0 -0 -2.46216e-05)
(-0 -0 -2.47143e-05)
(-0 -0 -2.48073e-05)
(-0 -0 -2.49008e-05)
(-0 -0 -2.49948e-05)
)
;

boundaryField
{
    bottom
    {
        type            calculated;
        value           uniform (-0 -0 -1.72007e-05);
    }
    top
    {
        type            calculated;
        value           uniform (-0 -0 -2.5042e-05);
    }
    sidesX
    {
        type            empty;
    }
    sidesY
    {
        type            empty;
    }
}


// ************************************************************************* //
