/*--------------------------------*- C++ -*----------------------------------*\
| =========                 |                                                 |
| \\      /  F ield         | OpenFOAM: The Open Source CFD Toolbox           |
|  \\    /   O peration     | Version:  v2012                                 |
|   \\  /    A nd           | Website:  www.openfoam.com                      |
|    \\/     M anipulation  |                                                 |
\*---------------------------------------------------------------------------*/
FoamFile
{
    version     2.0;
    format      ascii;
    class       volScalarField;
    location    "199.9";
    object      rho_b;
}
// * * * * * * * * * * * * * * * * * * * * * * * * * * * * * * * * * * * * * //

dimensions      [1 -3 0 0 0 0 0];


internalField   nonuniform List<scalar> 
100
(
0.0803562
0.0914865
0.102654
0.11386
0.125108
0.136399
0.147732
0.15911
0.170532
0.181998
0.193509
0.205064
0.216664
0.228308
0.239997
0.25173
0.263508
0.275331
0.287199
0.299112
0.31107
0.323073
0.335122
0.347217
0.359357
0.371543
0.383775
0.396053
0.408378
0.420749
0.433167
0.445632
0.458144
0.470703
0.483309
0.495963
0.508665
0.521414
0.534212
0.547057
0.559952
0.572894
0.585886
0.598926
0.612016
0.625155
0.638343
0.651581
0.664869
0.678207
0.691596
0.705034
0.718524
0.732064
0.745655
0.759297
0.772991
0.786736
0.800533
0.814382
0.828283
0.842237
0.856243
0.870301
0.884413
0.898578
0.912796
0.927067
0.941393
0.955772
0.970206
0.984693
0.999236
1.01383
1.02848
1.04319
1.05795
1.07277
1.08765
1.10258
1.11756
1.13261
1.1477
1.16286
1.17807
1.19334
1.20867
1.22406
1.2395
1.255
1.27056
1.28618
1.30186
1.31759
1.33339
1.34925
1.36516
1.38113
1.39717
1.41327
)
;

boundaryField
{
    bottom
    {
        type            calculated;
        value           uniform 0.0748075;
    }
    top
    {
        type            calculated;
        value           uniform 1.42134;
    }
    sidesX
    {
        type            empty;
    }
    sidesY
    {
        type            empty;
    }
}


// ************************************************************************* //
