/*--------------------------------*- C++ -*----------------------------------*\
| =========                 |                                                 |
| \\      /  F ield         | OpenFOAM: The Open Source CFD Toolbox           |
|  \\    /   O peration     | Version:  v2012                                 |
|   \\  /    A nd           | Website:  www.openfoam.com                      |
|    \\/     M anipulation  |                                                 |
\*---------------------------------------------------------------------------*/
FoamFile
{
    version     2.0;
    format      ascii;
    class       volScalarField;
    location    "199.6";
    object      coeff;
}
// * * * * * * * * * * * * * * * * * * * * * * * * * * * * * * * * * * * * * //

dimensions      [0 0 0 0 0 0 0];


internalField   nonuniform List<scalar> 
100
(
18.619
16.3538
14.5747
13.1402
11.9589
10.969
10.1274
9.40323
8.77342
8.22068
7.73168
7.29601
6.9054
6.55322
6.23405
5.94348
5.67782
5.43401
5.20946
5.00198
4.80969
4.63099
4.46449
4.30898
4.16341
4.02686
3.89851
3.77765
3.66364
3.55592
3.45398
3.35737
3.26568
3.17855
3.09564
3.01666
2.94133
2.86941
2.80067
2.73491
2.67193
2.61157
2.55366
2.49805
2.44463
2.39325
2.3438
2.29618
2.25029
2.20604
2.16333
2.1221
2.08226
2.04374
2.00649
1.97044
1.93553
1.90172
1.86894
1.83716
1.80633
1.7764
1.74734
1.71912
1.69169
1.66502
1.63909
1.61385
1.58929
1.56538
1.5421
1.51941
1.49729
1.47574
1.45471
1.4342
1.41419
1.39466
1.37558
1.35696
1.33876
1.32098
1.3036
1.28661
1.27
1.25375
1.23785
1.22229
1.20706
1.19215
1.17755
1.16325
1.14924
1.13552
1.12206
1.10888
1.09595
1.08328
1.07084
1.05865
)
;

boundaryField
{
    bottom
    {
        type            calculated;
        value           uniform 20;
    }
    top
    {
        type            calculated;
        value           uniform 1.05263;
    }
    sidesX
    {
        type            empty;
    }
    sidesY
    {
        type            empty;
    }
}


// ************************************************************************* //
