/*--------------------------------*- C++ -*----------------------------------*\
| =========                 |                                                 |
| \\      /  F ield         | OpenFOAM: The Open Source CFD Toolbox           |
|  \\    /   O peration     | Version:  v2012                                 |
|   \\  /    A nd           | Website:  www.openfoam.com                      |
|    \\/     M anipulation  |                                                 |
\*---------------------------------------------------------------------------*/
FoamFile
{
    version     2.0;
    format      ascii;
    class       volVectorField;
    location    "49";
    object      ja;
}
// * * * * * * * * * * * * * * * * * * * * * * * * * * * * * * * * * * * * * //

dimensions      [1 -2 -1 0 0 0 0];


internalField   nonuniform List<vector> 
400
(
(-0 -0 6.37723e-06)
(-0 -0 6.41196e-06)
(-0 -0 6.44664e-06)
(-0 -0 6.48125e-06)
(-0 -0 6.51578e-06)
(-0 -0 6.55024e-06)
(-0 -0 6.58462e-06)
(-0 -0 6.61892e-06)
(-0 -0 6.65314e-06)
(-0 -0 6.68728e-06)
(-0 -0 6.72134e-06)
(-0 -0 6.75531e-06)
(-0 -0 6.7892e-06)
(-0 -0 6.82301e-06)
(-0 -0 6.85673e-06)
(-0 -0 6.89036e-06)
(-0 -0 6.9239e-06)
(-0 -0 6.95735e-06)
(-0 -0 6.99071e-06)
(-0 -0 7.02399e-06)
(-0 -0 7.05716e-06)
(-0 -0 7.09025e-06)
(-0 -0 7.12324e-06)
(-0 -0 7.15614e-06)
(-0 -0 7.18894e-06)
(-0 -0 7.22164e-06)
(-0 -0 7.25425e-06)
(-0 -0 7.28676e-06)
(-0 -0 7.31917e-06)
(-0 -0 7.35148e-06)
(-0 -0 7.38368e-06)
(-0 -0 7.41579e-06)
(-0 -0 7.4478e-06)
(-0 -0 7.4797e-06)
(-0 -0 7.5115e-06)
(-0 -0 7.54319e-06)
(-0 -0 7.57478e-06)
(-0 -0 7.60627e-06)
(-0 -0 7.63764e-06)
(-0 -0 7.66892e-06)
(-0 -0 7.70008e-06)
(-0 -0 7.73114e-06)
(-0 -0 7.76208e-06)
(-0 -0 7.79292e-06)
(-0 -0 7.82365e-06)
(-0 -0 7.85427e-06)
(-0 -0 7.88478e-06)
(-0 -0 7.91518e-06)
(-0 -0 7.94546e-06)
(-0 -0 7.97564e-06)
(-0 -0 8.0057e-06)
(-0 -0 8.03565e-06)
(-0 -0 8.06548e-06)
(-0 -0 8.0952e-06)
(-0 -0 8.12481e-06)
(-0 -0 8.15431e-06)
(-0 -0 8.18369e-06)
(-0 -0 8.21295e-06)
(-0 -0 8.2421e-06)
(-0 -0 8.27113e-06)
(-0 -0 8.30005e-06)
(-0 -0 8.32885e-06)
(-0 -0 8.35753e-06)
(-0 -0 8.3861e-06)
(-0 -0 8.41455e-06)
(-0 -0 8.44288e-06)
(-0 -0 8.47109e-06)
(-0 -0 8.49919e-06)
(-0 -0 8.52717e-06)
(-0 -0 8.55503e-06)
(-0 -0 8.58277e-06)
(-0 -0 8.6104e-06)
(-0 -0 8.6379e-06)
(-0 -0 8.66529e-06)
(-0 -0 8.69255e-06)
(-0 -0 8.7197e-06)
(-0 -0 8.74673e-06)
(-0 -0 8.77364e-06)
(-0 -0 8.80043e-06)
(-0 -0 8.8271e-06)
(-0 -0 8.85365e-06)
(-0 -0 8.88008e-06)
(-0 -0 8.9064e-06)
(-0 -0 8.93259e-06)
(-0 -0 8.95866e-06)
(-0 -0 8.98461e-06)
(-0 -0 9.01044e-06)
(-0 -0 9.03616e-06)
(-0 -0 9.06175e-06)
(-0 -0 9.08722e-06)
(-0 -0 9.11258e-06)
(-0 -0 9.13781e-06)
(-0 -0 9.16292e-06)
(-0 -0 9.18792e-06)
(-0 -0 9.21279e-06)
(-0 -0 9.23755e-06)
(-0 -0 9.26219e-06)
(-0 -0 9.2867e-06)
(-0 -0 9.3111e-06)
(-0 -0 9.33538e-06)
(-0 -0 9.35954e-06)
(-0 -0 9.38358e-06)
(-0 -0 9.4075e-06)
(-0 -0 9.4313e-06)
(-0 -0 9.45499e-06)
(-0 -0 9.47856e-06)
(-0 -0 9.502e-06)
(-0 -0 9.52533e-06)
(-0 -0 9.54855e-06)
(-0 -0 9.57164e-06)
(-0 -0 9.59462e-06)
(-0 -0 9.61748e-06)
(-0 -0 9.64022e-06)
(-0 -0 9.66285e-06)
(-0 -0 9.68535e-06)
(-0 -0 9.70775e-06)
(-0 -0 9.73002e-06)
(-0 -0 9.75218e-06)
(-0 -0 9.77423e-06)
(-0 -0 9.79616e-06)
(-0 -0 9.81797e-06)
(-0 -0 9.83967e-06)
(-0 -0 9.86125e-06)
(-0 -0 9.88272e-06)
(-0 -0 9.90407e-06)
(-0 -0 9.92531e-06)
(-0 -0 9.94644e-06)
(-0 -0 9.96745e-06)
(-0 -0 9.98835e-06)
(-0 -0 1.00091e-05)
(-0 -0 1.00298e-05)
(-0 -0 1.00504e-05)
(-0 -0 1.00708e-05)
(-0 -0 1.00912e-05)
(-0 -0 1.01114e-05)
(-0 -0 1.01315e-05)
(-0 -0 1.01515e-05)
(-0 -0 1.01714e-05)
(-0 -0 1.01912e-05)
(-0 -0 1.02109e-05)
(-0 -0 1.02304e-05)
(-0 -0 1.02499e-05)
(-0 -0 1.02692e-05)
(-0 -0 1.02885e-05)
(-0 -0 1.03076e-05)
(-0 -0 1.03266e-05)
(-0 -0 1.03455e-05)
(-0 -0 1.03643e-05)
(-0 -0 1.0383e-05)
(-0 -0 1.04016e-05)
(-0 -0 1.04201e-05)
(-0 -0 1.04385e-05)
(-0 -0 1.04568e-05)
(-0 -0 1.04749e-05)
(-0 -0 1.0493e-05)
(-0 -0 1.05109e-05)
(-0 -0 1.05288e-05)
(-0 -0 1.05466e-05)
(-0 -0 1.05642e-05)
(-0 -0 1.05818e-05)
(-0 -0 1.05992e-05)
(-0 -0 1.06165e-05)
(-0 -0 1.06338e-05)
(-0 -0 1.06509e-05)
(-0 -0 1.0668e-05)
(-0 -0 1.06849e-05)
(-0 -0 1.07017e-05)
(-0 -0 1.07185e-05)
(-0 -0 1.07351e-05)
(-0 -0 1.07517e-05)
(-0 -0 1.07681e-05)
(-0 -0 1.07844e-05)
(-0 -0 1.08007e-05)
(-0 -0 1.08168e-05)
(-0 -0 1.08329e-05)
(-0 -0 1.08488e-05)
(-0 -0 1.08647e-05)
(-0 -0 1.08805e-05)
(-0 -0 1.08961e-05)
(-0 -0 1.09117e-05)
(-0 -0 1.09272e-05)
(-0 -0 1.09426e-05)
(-0 -0 1.09579e-05)
(-0 -0 1.09731e-05)
(-0 -0 1.09882e-05)
(-0 -0 1.10032e-05)
(-0 -0 1.10181e-05)
(-0 -0 1.10329e-05)
(-0 -0 1.10477e-05)
(-0 -0 1.10623e-05)
(-0 -0 1.10769e-05)
(-0 -0 1.10913e-05)
(-0 -0 1.11057e-05)
(-0 -0 1.112e-05)
(-0 -0 1.11342e-05)
(-0 -0 1.11483e-05)
(-0 -0 1.11623e-05)
(-0 -0 1.11763e-05)
(-0 -0 1.11901e-05)
(-0 -0 1.12039e-05)
(-0 -0 1.12176e-05)
(-0 -0 1.12311e-05)
(-0 -0 1.12446e-05)
(-0 -0 1.12581e-05)
(-0 -0 1.12714e-05)
(-0 -0 1.12847e-05)
(-0 -0 1.12978e-05)
(-0 -0 1.13109e-05)
(-0 -0 1.13239e-05)
(-0 -0 1.13368e-05)
(-0 -0 1.13497e-05)
(-0 -0 1.13624e-05)
(-0 -0 1.13751e-05)
(-0 -0 1.13877e-05)
(-0 -0 1.14002e-05)
(-0 -0 1.14126e-05)
(-0 -0 1.1425e-05)
(-0 -0 1.14373e-05)
(-0 -0 1.14495e-05)
(-0 -0 1.14616e-05)
(-0 -0 1.14736e-05)
(-0 -0 1.14856e-05)
(-0 -0 1.14975e-05)
(-0 -0 1.15093e-05)
(-0 -0 1.1521e-05)
(-0 -0 1.15326e-05)
(-0 -0 1.15442e-05)
(-0 -0 1.15557e-05)
(-0 -0 1.15672e-05)
(-0 -0 1.15785e-05)
(-0 -0 1.15898e-05)
(-0 -0 1.1601e-05)
(-0 -0 1.16121e-05)
(-0 -0 1.16232e-05)
(-0 -0 1.16342e-05)
(-0 -0 1.16451e-05)
(-0 -0 1.1656e-05)
(-0 -0 1.16667e-05)
(-0 -0 1.16774e-05)
(-0 -0 1.16881e-05)
(-0 -0 1.16986e-05)
(-0 -0 1.17091e-05)
(-0 -0 1.17196e-05)
(-0 -0 1.17299e-05)
(-0 -0 1.17402e-05)
(-0 -0 1.17504e-05)
(-0 -0 1.17606e-05)
(-0 -0 1.17707e-05)
(-0 -0 1.17807e-05)
(-0 -0 1.17906e-05)
(-0 -0 1.18005e-05)
(-0 -0 1.18103e-05)
(-0 -0 1.18201e-05)
(-0 -0 1.18298e-05)
(-0 -0 1.18394e-05)
(-0 -0 1.1849e-05)
(-0 -0 1.18585e-05)
(-0 -0 1.18679e-05)
(-0 -0 1.18773e-05)
(-0 -0 1.18866e-05)
(-0 -0 1.18958e-05)
(-0 -0 1.1905e-05)
(-0 -0 1.19141e-05)
(-0 -0 1.19232e-05)
(-0 -0 1.19322e-05)
(-0 -0 1.19411e-05)
(-0 -0 1.195e-05)
(-0 -0 1.19588e-05)
(-0 -0 1.19676e-05)
(-0 -0 1.19763e-05)
(-0 -0 1.19849e-05)
(-0 -0 1.19935e-05)
(-0 -0 1.2002e-05)
(-0 -0 1.20105e-05)
(-0 -0 1.20189e-05)
(-0 -0 1.20272e-05)
(-0 -0 1.20355e-05)
(-0 -0 1.20438e-05)
(-0 -0 1.2052e-05)
(-0 -0 1.20601e-05)
(-0 -0 1.20682e-05)
(-0 -0 1.20762e-05)
(-0 -0 1.20841e-05)
(-0 -0 1.2092e-05)
(-0 -0 1.20999e-05)
(-0 -0 1.21077e-05)
(-0 -0 1.21154e-05)
(-0 -0 1.21231e-05)
(-0 -0 1.21308e-05)
(-0 -0 1.21384e-05)
(-0 -0 1.21459e-05)
(-0 -0 1.21534e-05)
(-0 -0 1.21608e-05)
(-0 -0 1.21682e-05)
(-0 -0 1.21755e-05)
(-0 -0 1.21828e-05)
(-0 -0 1.219e-05)
(-0 -0 1.21972e-05)
(-0 -0 1.22044e-05)
(-0 -0 1.22114e-05)
(-0 -0 1.22185e-05)
(-0 -0 1.22255e-05)
(-0 -0 1.22324e-05)
(-0 -0 1.22393e-05)
(-0 -0 1.22461e-05)
(-0 -0 1.22529e-05)
(-0 -0 1.22597e-05)
(-0 -0 1.22664e-05)
(-0 -0 1.2273e-05)
(-0 -0 1.22796e-05)
(-0 -0 1.22862e-05)
(-0 -0 1.22927e-05)
(-0 -0 1.22992e-05)
(-0 -0 1.23056e-05)
(-0 -0 1.2312e-05)
(-0 -0 1.23183e-05)
(-0 -0 1.23246e-05)
(-0 -0 1.23308e-05)
(-0 -0 1.2337e-05)
(-0 -0 1.23432e-05)
(-0 -0 1.23493e-05)
(-0 -0 1.23554e-05)
(-0 -0 1.23614e-05)
(-0 -0 1.23674e-05)
(-0 -0 1.23734e-05)
(-0 -0 1.23793e-05)
(-0 -0 1.23851e-05)
(-0 -0 1.2391e-05)
(-0 -0 1.23967e-05)
(-0 -0 1.24025e-05)
(-0 -0 1.24082e-05)
(-0 -0 1.24138e-05)
(-0 -0 1.24195e-05)
(-0 -0 1.24251e-05)
(-0 -0 1.24306e-05)
(-0 -0 1.24361e-05)
(-0 -0 1.24416e-05)
(-0 -0 1.2447e-05)
(-0 -0 1.24524e-05)
(-0 -0 1.24577e-05)
(-0 -0 1.2463e-05)
(-0 -0 1.24683e-05)
(-0 -0 1.24736e-05)
(-0 -0 1.24788e-05)
(-0 -0 1.24839e-05)
(-0 -0 1.24891e-05)
(-0 -0 1.24941e-05)
(-0 -0 1.24992e-05)
(-0 -0 1.25042e-05)
(-0 -0 1.25092e-05)
(-0 -0 1.25142e-05)
(-0 -0 1.25191e-05)
(-0 -0 1.2524e-05)
(-0 -0 1.25288e-05)
(-0 -0 1.25336e-05)
(-0 -0 1.25384e-05)
(-0 -0 1.25431e-05)
(-0 -0 1.25478e-05)
(-0 -0 1.25525e-05)
(-0 -0 1.25571e-05)
(-0 -0 1.25618e-05)
(-0 -0 1.25663e-05)
(-0 -0 1.25709e-05)
(-0 -0 1.25754e-05)
(-0 -0 1.25799e-05)
(-0 -0 1.25843e-05)
(-0 -0 1.25887e-05)
(-0 -0 1.25931e-05)
(-0 -0 1.25975e-05)
(-0 -0 1.26018e-05)
(-0 -0 1.26061e-05)
(-0 -0 1.26103e-05)
(-0 -0 1.26146e-05)
(-0 -0 1.26188e-05)
(-0 -0 1.26229e-05)
(-0 -0 1.26271e-05)
(-0 -0 1.26312e-05)
(-0 -0 1.26353e-05)
(-0 -0 1.26393e-05)
(-0 -0 1.26433e-05)
(-0 -0 1.26473e-05)
(-0 -0 1.26513e-05)
(-0 -0 1.26552e-05)
(-0 -0 1.26591e-05)
(-0 -0 1.2663e-05)
(-0 -0 1.26669e-05)
(-0 -0 1.26707e-05)
(-0 -0 1.26745e-05)
(-0 -0 1.26783e-05)
(-0 -0 1.2682e-05)
(-0 -0 1.26857e-05)
(-0 -0 1.26894e-05)
(-0 -0 1.26931e-05)
(-0 -0 1.26967e-05)
(-0 -0 1.27003e-05)
(-0 -0 1.27039e-05)
(-0 -0 1.27075e-05)
(-0 -0 1.2711e-05)
(-0 -0 1.27145e-05)
(-0 -0 1.2718e-05)
)
;

boundaryField
{
    bottom
    {
        type            calculated;
        value           uniform (-0 -0 6.35986e-06);
    }
    top
    {
        type            calculated;
        value           uniform (-0 -0 1.27197e-05);
    }
    sidesX
    {
        type            empty;
    }
    sidesY
    {
        type            empty;
    }
}


// ************************************************************************* //
