/*--------------------------------*- C++ -*----------------------------------*\
| =========                 |                                                 |
| \\      /  F ield         | OpenFOAM: The Open Source CFD Toolbox           |
|  \\    /   O peration     | Version:  v2012                                 |
|   \\  /    A nd           | Website:  www.openfoam.com                      |
|    \\/     M anipulation  |                                                 |
\*---------------------------------------------------------------------------*/
FoamFile
{
    version     2.0;
    format      ascii;
    class       volScalarField;
    location    "48";
    object      rho_a;
}
// * * * * * * * * * * * * * * * * * * * * * * * * * * * * * * * * * * * * * //

dimensions      [1 -3 0 0 0 0 0];


internalField   nonuniform List<scalar> 
300
(
1.19575
1.19312
1.19047
1.18783
1.18519
1.18254
1.17989
1.17724
1.17459
1.17193
1.16927
1.16661
1.16395
1.16129
1.15862
1.15595
1.15328
1.15061
1.14793
1.14525
1.14257
1.13989
1.13721
1.13452
1.13183
1.12914
1.12645
1.12375
1.12106
1.11836
1.11565
1.11295
1.11024
1.10753
1.10482
1.10211
1.09939
1.09667
1.09395
1.09123
1.08851
1.08578
1.08305
1.08032
1.07759
1.07485
1.07211
1.06937
1.06663
1.06388
1.06113
1.05839
1.05563
1.05288
1.05012
1.04736
1.0446
1.04184
1.03907
1.03631
1.03353
1.03076
1.02799
1.02521
1.02243
1.01965
1.01686
1.01408
1.01129
1.0085
1.0057
1.00291
1.00011
0.997311
0.994508
0.991703
0.988896
0.986086
0.983274
0.98046
0.977643
0.974824
0.972003
0.969179
0.966353
0.963525
0.960694
0.957861
0.955026
0.952188
0.949348
0.946506
0.943661
0.940814
0.937964
0.935112
0.932258
0.929401
0.926542
0.923681
0.920817
0.917951
0.915083
0.912212
0.909339
0.906463
0.903585
0.900705
0.897822
0.894937
0.892049
0.889159
0.886267
0.883372
0.880475
0.877575
0.874673
0.871769
0.868862
0.865953
0.863041
0.860127
0.85721
0.854292
0.85137
0.848447
0.84552
0.842592
0.839661
0.836727
0.833791
0.830853
0.827912
0.824969
0.822024
0.819076
0.816125
0.813172
0.810217
0.807259
0.804298
0.801336
0.79837
0.795403
0.792433
0.78946
0.786485
0.783507
0.780527
0.777545
0.77456
0.771572
0.768582
0.76559
0.762595
0.759598
0.756598
0.753596
0.750591
0.747583
0.744574
0.741561
0.738546
0.735529
0.732509
0.729487
0.726462
0.723435
0.720405
0.717372
0.714338
0.7113
0.70826
0.705218
0.702173
0.699125
0.696075
0.693023
0.689968
0.68691
0.68385
0.680787
0.677722
0.674654
0.671584
0.668511
0.665435
0.662357
0.659277
0.656194
0.653108
0.65002
0.646929
0.643836
0.64074
0.637641
0.63454
0.631437
0.628331
0.625222
0.622111
0.618997
0.61588
0.612761
0.609639
0.606515
0.603388
0.600259
0.597127
0.593992
0.590855
0.587715
0.584573
0.581427
0.57828
0.57513
0.571977
0.568821
0.565663
0.562502
0.559339
0.556173
0.553004
0.549833
0.546659
0.543483
0.540303
0.537122
0.533937
0.53075
0.52756
0.524368
0.521173
0.517975
0.514775
0.511572
0.508367
0.505158
0.501947
0.498734
0.495517
0.492298
0.489077
0.485853
0.482626
0.479396
0.476164
0.472929
0.469691
0.466451
0.463208
0.459962
0.456713
0.453462
0.450208
0.446952
0.443693
0.440431
0.437166
0.433899
0.430629
0.427356
0.42408
0.420802
0.417521
0.414238
0.410951
0.407662
0.40437
0.401076
0.397779
0.394478
0.391176
0.38787
0.384562
0.381251
0.377937
0.374621
0.371302
0.36798
0.364655
0.361327
0.357997
0.354664
0.351328
0.34799
0.344648
0.341304
0.337957
0.334608
0.331255
0.3279
0.324542
0.321181
0.317818
0.314451
0.311082
0.30771
0.304335
0.300958
)
;

boundaryField
{
    bottom
    {
        type            fixedValue;
        value           uniform 1.19707;
    }
    top
    {
        type            fixedValue;
        value           uniform 0.299268;
    }
    sidesX
    {
        type            empty;
    }
    sidesY
    {
        type            empty;
    }
}


// ************************************************************************* //
