/*--------------------------------*- C++ -*----------------------------------*\
| =========                 |                                                 |
| \\      /  F ield         | OpenFOAM: The Open Source CFD Toolbox           |
|  \\    /   O peration     | Version:  v2012                                 |
|   \\  /    A nd           | Website:  www.openfoam.com                      |
|    \\/     M anipulation  |                                                 |
\*---------------------------------------------------------------------------*/
FoamFile
{
    version     2.0;
    format      ascii;
    class       volVectorField;
    location    "0.6";
    object      Na;
}
// * * * * * * * * * * * * * * * * * * * * * * * * * * * * * * * * * * * * * //

dimensions      [1 -2 -1 0 0 0 0];


internalField   nonuniform List<vector> 
300
(
(0 0 1.74328e-05)
(0 0 1.74273e-05)
(0 0 1.74224e-05)
(0 0 1.74175e-05)
(0 0 1.74126e-05)
(0 0 1.74078e-05)
(0 0 1.7403e-05)
(0 0 1.73982e-05)
(0 0 1.73934e-05)
(0 0 1.73887e-05)
(0 0 1.73839e-05)
(0 0 1.73792e-05)
(0 0 1.73745e-05)
(0 0 1.73698e-05)
(0 0 1.73652e-05)
(0 0 1.73605e-05)
(0 0 1.73559e-05)
(0 0 1.73513e-05)
(0 0 1.73467e-05)
(0 0 1.73422e-05)
(0 0 1.73376e-05)
(0 0 1.73331e-05)
(0 0 1.73286e-05)
(0 0 1.73241e-05)
(0 0 1.73197e-05)
(0 0 1.73152e-05)
(0 0 1.73108e-05)
(0 0 1.73064e-05)
(0 0 1.7302e-05)
(0 0 1.72976e-05)
(0 0 1.72932e-05)
(0 0 1.72889e-05)
(0 0 1.72846e-05)
(0 0 1.72803e-05)
(0 0 1.7276e-05)
(0 0 1.72717e-05)
(0 0 1.72675e-05)
(0 0 1.72633e-05)
(0 0 1.72591e-05)
(0 0 1.72549e-05)
(0 0 1.72507e-05)
(0 0 1.72465e-05)
(0 0 1.72424e-05)
(0 0 1.72383e-05)
(0 0 1.72342e-05)
(0 0 1.72301e-05)
(0 0 1.7226e-05)
(0 0 1.7222e-05)
(0 0 1.72179e-05)
(0 0 1.72139e-05)
(0 0 1.72099e-05)
(0 0 1.7206e-05)
(0 0 1.7202e-05)
(0 0 1.71981e-05)
(0 0 1.71941e-05)
(0 0 1.71902e-05)
(0 0 1.71863e-05)
(0 0 1.71824e-05)
(0 0 1.71786e-05)
(0 0 1.71748e-05)
(0 0 1.71709e-05)
(0 0 1.71671e-05)
(0 0 1.71633e-05)
(0 0 1.71596e-05)
(0 0 1.71558e-05)
(0 0 1.71521e-05)
(0 0 1.71483e-05)
(0 0 1.71446e-05)
(0 0 1.7141e-05)
(0 0 1.71373e-05)
(0 0 1.71336e-05)
(0 0 1.713e-05)
(0 0 1.71264e-05)
(0 0 1.71228e-05)
(0 0 1.71192e-05)
(0 0 1.71156e-05)
(0 0 1.7112e-05)
(0 0 1.71085e-05)
(0 0 1.7105e-05)
(0 0 1.71015e-05)
(0 0 1.7098e-05)
(0 0 1.70945e-05)
(0 0 1.7091e-05)
(0 0 1.70876e-05)
(0 0 1.70842e-05)
(0 0 1.70808e-05)
(0 0 1.70774e-05)
(0 0 1.7074e-05)
(0 0 1.70706e-05)
(0 0 1.70673e-05)
(0 0 1.70639e-05)
(0 0 1.70606e-05)
(0 0 1.70573e-05)
(0 0 1.7054e-05)
(0 0 1.70508e-05)
(0 0 1.70475e-05)
(0 0 1.70443e-05)
(0 0 1.70411e-05)
(0 0 1.70379e-05)
(0 0 1.70347e-05)
(0 0 1.70315e-05)
(0 0 1.70283e-05)
(0 0 1.70252e-05)
(0 0 1.70221e-05)
(0 0 1.70189e-05)
(0 0 1.70158e-05)
(0 0 1.70128e-05)
(0 0 1.70097e-05)
(0 0 1.70066e-05)
(0 0 1.70036e-05)
(0 0 1.70006e-05)
(0 0 1.69976e-05)
(0 0 1.69946e-05)
(0 0 1.69916e-05)
(0 0 1.69886e-05)
(0 0 1.69857e-05)
(0 0 1.69827e-05)
(0 0 1.69798e-05)
(0 0 1.69769e-05)
(0 0 1.6974e-05)
(0 0 1.69711e-05)
(0 0 1.69683e-05)
(0 0 1.69654e-05)
(0 0 1.69626e-05)
(0 0 1.69598e-05)
(0 0 1.6957e-05)
(0 0 1.69542e-05)
(0 0 1.69514e-05)
(0 0 1.69486e-05)
(0 0 1.69459e-05)
(0 0 1.69432e-05)
(0 0 1.69404e-05)
(0 0 1.69377e-05)
(0 0 1.6935e-05)
(0 0 1.69324e-05)
(0 0 1.69297e-05)
(0 0 1.69271e-05)
(0 0 1.69244e-05)
(0 0 1.69218e-05)
(0 0 1.69192e-05)
(0 0 1.69166e-05)
(0 0 1.6914e-05)
(0 0 1.69115e-05)
(0 0 1.69089e-05)
(0 0 1.69064e-05)
(0 0 1.69038e-05)
(0 0 1.69013e-05)
(0 0 1.68988e-05)
(0 0 1.68964e-05)
(0 0 1.68939e-05)
(0 0 1.68914e-05)
(0 0 1.6889e-05)
(0 0 1.68866e-05)
(0 0 1.68841e-05)
(0 0 1.68817e-05)
(0 0 1.68794e-05)
(0 0 1.6877e-05)
(0 0 1.68746e-05)
(0 0 1.68723e-05)
(0 0 1.68699e-05)
(0 0 1.68676e-05)
(0 0 1.68653e-05)
(0 0 1.6863e-05)
(0 0 1.68607e-05)
(0 0 1.68585e-05)
(0 0 1.68562e-05)
(0 0 1.6854e-05)
(0 0 1.68517e-05)
(0 0 1.68495e-05)
(0 0 1.68473e-05)
(0 0 1.68451e-05)
(0 0 1.68429e-05)
(0 0 1.68408e-05)
(0 0 1.68386e-05)
(0 0 1.68365e-05)
(0 0 1.68343e-05)
(0 0 1.68322e-05)
(0 0 1.68301e-05)
(0 0 1.6828e-05)
(0 0 1.6826e-05)
(0 0 1.68239e-05)
(0 0 1.68218e-05)
(0 0 1.68198e-05)
(0 0 1.68178e-05)
(0 0 1.68158e-05)
(0 0 1.68138e-05)
(0 0 1.68118e-05)
(0 0 1.68098e-05)
(0 0 1.68078e-05)
(0 0 1.68059e-05)
(0 0 1.68039e-05)
(0 0 1.6802e-05)
(0 0 1.68001e-05)
(0 0 1.67982e-05)
(0 0 1.67963e-05)
(0 0 1.67944e-05)
(0 0 1.67925e-05)
(0 0 1.67907e-05)
(0 0 1.67888e-05)
(0 0 1.6787e-05)
(0 0 1.67852e-05)
(0 0 1.67834e-05)
(0 0 1.67816e-05)
(0 0 1.67798e-05)
(0 0 1.6778e-05)
(0 0 1.67763e-05)
(0 0 1.67745e-05)
(0 0 1.67728e-05)
(0 0 1.67711e-05)
(0 0 1.67694e-05)
(0 0 1.67677e-05)
(0 0 1.6766e-05)
(0 0 1.67643e-05)
(0 0 1.67626e-05)
(0 0 1.6761e-05)
(0 0 1.67593e-05)
(0 0 1.67577e-05)
(0 0 1.67561e-05)
(0 0 1.67545e-05)
(0 0 1.67529e-05)
(0 0 1.67513e-05)
(0 0 1.67497e-05)
(0 0 1.67481e-05)
(0 0 1.67466e-05)
(0 0 1.67451e-05)
(0 0 1.67435e-05)
(0 0 1.6742e-05)
(0 0 1.67405e-05)
(0 0 1.6739e-05)
(0 0 1.67375e-05)
(0 0 1.67361e-05)
(0 0 1.67346e-05)
(0 0 1.67331e-05)
(0 0 1.67317e-05)
(0 0 1.67303e-05)
(0 0 1.67289e-05)
(0 0 1.67275e-05)
(0 0 1.67261e-05)
(0 0 1.67247e-05)
(0 0 1.67233e-05)
(0 0 1.67219e-05)
(0 0 1.67206e-05)
(0 0 1.67192e-05)
(0 0 1.67179e-05)
(0 0 1.67166e-05)
(0 0 1.67153e-05)
(0 0 1.6714e-05)
(0 0 1.67127e-05)
(0 0 1.67114e-05)
(0 0 1.67102e-05)
(0 0 1.67089e-05)
(0 0 1.67077e-05)
(0 0 1.67064e-05)
(0 0 1.67052e-05)
(0 0 1.6704e-05)
(0 0 1.67028e-05)
(0 0 1.67016e-05)
(0 0 1.67004e-05)
(0 0 1.66993e-05)
(0 0 1.66981e-05)
(0 0 1.6697e-05)
(0 0 1.66958e-05)
(0 0 1.66947e-05)
(0 0 1.66936e-05)
(0 0 1.66925e-05)
(0 0 1.66914e-05)
(0 0 1.66903e-05)
(0 0 1.66892e-05)
(0 0 1.66881e-05)
(0 0 1.66871e-05)
(0 0 1.6686e-05)
(0 0 1.6685e-05)
(0 0 1.6684e-05)
(0 0 1.6683e-05)
(0 0 1.6682e-05)
(0 0 1.6681e-05)
(0 0 1.668e-05)
(0 0 1.6679e-05)
(0 0 1.6678e-05)
(0 0 1.66771e-05)
(0 0 1.66761e-05)
(0 0 1.66752e-05)
(0 0 1.66743e-05)
(0 0 1.66734e-05)
(0 0 1.66725e-05)
(0 0 1.66716e-05)
(0 0 1.66707e-05)
(0 0 1.66698e-05)
(0 0 1.66689e-05)
(0 0 1.66681e-05)
(0 0 1.66672e-05)
(0 0 1.66664e-05)
(0 0 1.66656e-05)
(0 0 1.66648e-05)
(0 0 1.66639e-05)
(0 0 1.66631e-05)
(0 0 1.66624e-05)
(0 0 1.66616e-05)
(0 0 1.66608e-05)
(0 0 1.66609e-05)
)
;

boundaryField
{
    bottom
    {
        type            calculated;
        value           uniform (0 0 1.62817e-05);
    }
    top
    {
        type            calculated;
        value           uniform (0 0 1.69499e-05);
    }
    sidesX
    {
        type            empty;
    }
    sidesY
    {
        type            empty;
    }
}


// ************************************************************************* //
