/*--------------------------------*- C++ -*----------------------------------*\
| =========                 |                                                 |
| \\      /  F ield         | OpenFOAM: The Open Source CFD Toolbox           |
|  \\    /   O peration     | Version:  v2012                                 |
|   \\  /    A nd           | Website:  www.openfoam.com                      |
|    \\/     M anipulation  |                                                 |
\*---------------------------------------------------------------------------*/
FoamFile
{
    version     2.0;
    format      ascii;
    class       volVectorField;
    location    "0.6";
    object      Nb;
}
// * * * * * * * * * * * * * * * * * * * * * * * * * * * * * * * * * * * * * //

dimensions      [1 -2 -1 0 0 0 0];


internalField   nonuniform List<vector> 
300
(
(0 0 -1.08849e-05)
(0 0 -1.08855e-05)
(0 0 -1.08868e-05)
(0 0 -1.0888e-05)
(0 0 -1.08893e-05)
(0 0 -1.08906e-05)
(0 0 -1.08919e-05)
(0 0 -1.08931e-05)
(0 0 -1.08944e-05)
(0 0 -1.08958e-05)
(0 0 -1.08971e-05)
(0 0 -1.08984e-05)
(0 0 -1.08997e-05)
(0 0 -1.09011e-05)
(0 0 -1.09024e-05)
(0 0 -1.09038e-05)
(0 0 -1.09051e-05)
(0 0 -1.09065e-05)
(0 0 -1.09079e-05)
(0 0 -1.09093e-05)
(0 0 -1.09107e-05)
(0 0 -1.09121e-05)
(0 0 -1.09135e-05)
(0 0 -1.09149e-05)
(0 0 -1.09164e-05)
(0 0 -1.09178e-05)
(0 0 -1.09193e-05)
(0 0 -1.09207e-05)
(0 0 -1.09222e-05)
(0 0 -1.09236e-05)
(0 0 -1.09251e-05)
(0 0 -1.09266e-05)
(0 0 -1.09281e-05)
(0 0 -1.09296e-05)
(0 0 -1.09311e-05)
(0 0 -1.09326e-05)
(0 0 -1.09341e-05)
(0 0 -1.09357e-05)
(0 0 -1.09372e-05)
(0 0 -1.09388e-05)
(0 0 -1.09403e-05)
(0 0 -1.09419e-05)
(0 0 -1.09435e-05)
(0 0 -1.0945e-05)
(0 0 -1.09466e-05)
(0 0 -1.09482e-05)
(0 0 -1.09498e-05)
(0 0 -1.09514e-05)
(0 0 -1.0953e-05)
(0 0 -1.09547e-05)
(0 0 -1.09563e-05)
(0 0 -1.09579e-05)
(0 0 -1.09596e-05)
(0 0 -1.09612e-05)
(0 0 -1.09629e-05)
(0 0 -1.09645e-05)
(0 0 -1.09662e-05)
(0 0 -1.09679e-05)
(0 0 -1.09696e-05)
(0 0 -1.09713e-05)
(0 0 -1.0973e-05)
(0 0 -1.09747e-05)
(0 0 -1.09764e-05)
(0 0 -1.09781e-05)
(0 0 -1.09799e-05)
(0 0 -1.09816e-05)
(0 0 -1.09833e-05)
(0 0 -1.09851e-05)
(0 0 -1.09869e-05)
(0 0 -1.09886e-05)
(0 0 -1.09904e-05)
(0 0 -1.09922e-05)
(0 0 -1.0994e-05)
(0 0 -1.09958e-05)
(0 0 -1.09976e-05)
(0 0 -1.09994e-05)
(0 0 -1.10012e-05)
(0 0 -1.1003e-05)
(0 0 -1.10048e-05)
(0 0 -1.10067e-05)
(0 0 -1.10085e-05)
(0 0 -1.10104e-05)
(0 0 -1.10122e-05)
(0 0 -1.10141e-05)
(0 0 -1.1016e-05)
(0 0 -1.10178e-05)
(0 0 -1.10197e-05)
(0 0 -1.10216e-05)
(0 0 -1.10235e-05)
(0 0 -1.10254e-05)
(0 0 -1.10273e-05)
(0 0 -1.10292e-05)
(0 0 -1.10312e-05)
(0 0 -1.10331e-05)
(0 0 -1.1035e-05)
(0 0 -1.1037e-05)
(0 0 -1.10389e-05)
(0 0 -1.10409e-05)
(0 0 -1.10428e-05)
(0 0 -1.10448e-05)
(0 0 -1.10468e-05)
(0 0 -1.10488e-05)
(0 0 -1.10508e-05)
(0 0 -1.10527e-05)
(0 0 -1.10548e-05)
(0 0 -1.10568e-05)
(0 0 -1.10588e-05)
(0 0 -1.10608e-05)
(0 0 -1.10628e-05)
(0 0 -1.10649e-05)
(0 0 -1.10669e-05)
(0 0 -1.10689e-05)
(0 0 -1.1071e-05)
(0 0 -1.10731e-05)
(0 0 -1.10751e-05)
(0 0 -1.10772e-05)
(0 0 -1.10793e-05)
(0 0 -1.10813e-05)
(0 0 -1.10834e-05)
(0 0 -1.10855e-05)
(0 0 -1.10876e-05)
(0 0 -1.10897e-05)
(0 0 -1.10919e-05)
(0 0 -1.1094e-05)
(0 0 -1.10961e-05)
(0 0 -1.10982e-05)
(0 0 -1.11004e-05)
(0 0 -1.11025e-05)
(0 0 -1.11047e-05)
(0 0 -1.11068e-05)
(0 0 -1.1109e-05)
(0 0 -1.11112e-05)
(0 0 -1.11133e-05)
(0 0 -1.11155e-05)
(0 0 -1.11177e-05)
(0 0 -1.11199e-05)
(0 0 -1.11221e-05)
(0 0 -1.11243e-05)
(0 0 -1.11265e-05)
(0 0 -1.11287e-05)
(0 0 -1.11309e-05)
(0 0 -1.11332e-05)
(0 0 -1.11354e-05)
(0 0 -1.11377e-05)
(0 0 -1.11399e-05)
(0 0 -1.11421e-05)
(0 0 -1.11444e-05)
(0 0 -1.11467e-05)
(0 0 -1.11489e-05)
(0 0 -1.11512e-05)
(0 0 -1.11535e-05)
(0 0 -1.11558e-05)
(0 0 -1.11581e-05)
(0 0 -1.11604e-05)
(0 0 -1.11627e-05)
(0 0 -1.1165e-05)
(0 0 -1.11673e-05)
(0 0 -1.11696e-05)
(0 0 -1.11719e-05)
(0 0 -1.11743e-05)
(0 0 -1.11766e-05)
(0 0 -1.11789e-05)
(0 0 -1.11813e-05)
(0 0 -1.11836e-05)
(0 0 -1.1186e-05)
(0 0 -1.11884e-05)
(0 0 -1.11907e-05)
(0 0 -1.11931e-05)
(0 0 -1.11955e-05)
(0 0 -1.11979e-05)
(0 0 -1.12003e-05)
(0 0 -1.12027e-05)
(0 0 -1.12051e-05)
(0 0 -1.12075e-05)
(0 0 -1.12099e-05)
(0 0 -1.12123e-05)
(0 0 -1.12147e-05)
(0 0 -1.12172e-05)
(0 0 -1.12196e-05)
(0 0 -1.1222e-05)
(0 0 -1.12245e-05)
(0 0 -1.12269e-05)
(0 0 -1.12294e-05)
(0 0 -1.12318e-05)
(0 0 -1.12343e-05)
(0 0 -1.12368e-05)
(0 0 -1.12393e-05)
(0 0 -1.12417e-05)
(0 0 -1.12442e-05)
(0 0 -1.12467e-05)
(0 0 -1.12492e-05)
(0 0 -1.12517e-05)
(0 0 -1.12542e-05)
(0 0 -1.12567e-05)
(0 0 -1.12593e-05)
(0 0 -1.12618e-05)
(0 0 -1.12643e-05)
(0 0 -1.12668e-05)
(0 0 -1.12694e-05)
(0 0 -1.12719e-05)
(0 0 -1.12745e-05)
(0 0 -1.1277e-05)
(0 0 -1.12796e-05)
(0 0 -1.12822e-05)
(0 0 -1.12847e-05)
(0 0 -1.12873e-05)
(0 0 -1.12899e-05)
(0 0 -1.12925e-05)
(0 0 -1.1295e-05)
(0 0 -1.12976e-05)
(0 0 -1.13002e-05)
(0 0 -1.13028e-05)
(0 0 -1.13055e-05)
(0 0 -1.13081e-05)
(0 0 -1.13107e-05)
(0 0 -1.13133e-05)
(0 0 -1.13159e-05)
(0 0 -1.13186e-05)
(0 0 -1.13212e-05)
(0 0 -1.13238e-05)
(0 0 -1.13265e-05)
(0 0 -1.13291e-05)
(0 0 -1.13318e-05)
(0 0 -1.13345e-05)
(0 0 -1.13371e-05)
(0 0 -1.13398e-05)
(0 0 -1.13425e-05)
(0 0 -1.13452e-05)
(0 0 -1.13478e-05)
(0 0 -1.13505e-05)
(0 0 -1.13532e-05)
(0 0 -1.13559e-05)
(0 0 -1.13586e-05)
(0 0 -1.13613e-05)
(0 0 -1.13641e-05)
(0 0 -1.13668e-05)
(0 0 -1.13695e-05)
(0 0 -1.13722e-05)
(0 0 -1.1375e-05)
(0 0 -1.13777e-05)
(0 0 -1.13804e-05)
(0 0 -1.13832e-05)
(0 0 -1.13859e-05)
(0 0 -1.13887e-05)
(0 0 -1.13915e-05)
(0 0 -1.13942e-05)
(0 0 -1.1397e-05)
(0 0 -1.13998e-05)
(0 0 -1.14025e-05)
(0 0 -1.14053e-05)
(0 0 -1.14081e-05)
(0 0 -1.14109e-05)
(0 0 -1.14137e-05)
(0 0 -1.14165e-05)
(0 0 -1.14193e-05)
(0 0 -1.14221e-05)
(0 0 -1.14249e-05)
(0 0 -1.14277e-05)
(0 0 -1.14306e-05)
(0 0 -1.14334e-05)
(0 0 -1.14362e-05)
(0 0 -1.14391e-05)
(0 0 -1.14419e-05)
(0 0 -1.14448e-05)
(0 0 -1.14476e-05)
(0 0 -1.14505e-05)
(0 0 -1.14533e-05)
(0 0 -1.14562e-05)
(0 0 -1.1459e-05)
(0 0 -1.14619e-05)
(0 0 -1.14648e-05)
(0 0 -1.14677e-05)
(0 0 -1.14706e-05)
(0 0 -1.14734e-05)
(0 0 -1.14763e-05)
(0 0 -1.14792e-05)
(0 0 -1.14821e-05)
(0 0 -1.1485e-05)
(0 0 -1.14879e-05)
(0 0 -1.14909e-05)
(0 0 -1.14938e-05)
(0 0 -1.14967e-05)
(0 0 -1.14996e-05)
(0 0 -1.15026e-05)
(0 0 -1.15055e-05)
(0 0 -1.15084e-05)
(0 0 -1.15114e-05)
(0 0 -1.15143e-05)
(0 0 -1.15173e-05)
(0 0 -1.15202e-05)
(0 0 -1.15232e-05)
(0 0 -1.15261e-05)
(0 0 -1.15291e-05)
(0 0 -1.15321e-05)
(0 0 -1.15351e-05)
(0 0 -1.1538e-05)
(0 0 -1.1541e-05)
(0 0 -1.1544e-05)
(0 0 -1.1547e-05)
(0 0 -1.15508e-05)
)
;

boundaryField
{
    bottom
    {
        type            calculated;
        value           uniform (0 0 -1.11735e-05);
    }
    top
    {
        type            calculated;
        value           uniform (0 0 -1.03989e-05);
    }
    sidesX
    {
        type            empty;
    }
    sidesY
    {
        type            empty;
    }
}


// ************************************************************************* //
