/*--------------------------------*- C++ -*----------------------------------*\
| =========                 |                                                 |
| \\      /  F ield         | OpenFOAM: The Open Source CFD Toolbox           |
|  \\    /   O peration     | Version:  v2012                                 |
|   \\  /    A nd           | Website:  www.openfoam.com                      |
|    \\/     M anipulation  |                                                 |
\*---------------------------------------------------------------------------*/
FoamFile
{
    version     2.0;
    format      ascii;
    class       volScalarField;
    location    "0.6";
    object      rho_a;
}
// * * * * * * * * * * * * * * * * * * * * * * * * * * * * * * * * * * * * * //

dimensions      [1 -3 0 0 0 0 0];


internalField   nonuniform List<scalar> 
300
(
1.19576
1.19313
1.19051
1.18788
1.18525
1.18261
1.17997
1.17733
1.17469
1.17205
1.1694
1.16675
1.1641
1.16144
1.15879
1.15613
1.15347
1.1508
1.14814
1.14547
1.14279
1.14012
1.13744
1.13476
1.13208
1.1294
1.12671
1.12402
1.12133
1.11864
1.11594
1.11324
1.11054
1.10784
1.10513
1.10242
1.09971
1.097
1.09428
1.09156
1.08884
1.08612
1.08339
1.08066
1.07793
1.0752
1.07246
1.06973
1.06698
1.06424
1.0615
1.05875
1.056
1.05324
1.05049
1.04773
1.04497
1.04221
1.03944
1.03667
1.0339
1.03113
1.02835
1.02558
1.02279
1.02001
1.01723
1.01444
1.01165
1.00886
1.00606
1.00326
1.00046
0.997661
0.994856
0.992048
0.989238
0.986426
0.983611
0.980793
0.977974
0.975151
0.972327
0.969499
0.96667
0.963837
0.961003
0.958166
0.955326
0.952484
0.949639
0.946792
0.943943
0.941091
0.938236
0.93538
0.93252
0.929658
0.926794
0.923927
0.921058
0.918186
0.915312
0.912436
0.909557
0.906675
0.903791
0.900904
0.898015
0.895124
0.89223
0.889334
0.886435
0.883533
0.88063
0.877723
0.874815
0.871904
0.86899
0.866074
0.863155
0.860234
0.85731
0.854384
0.851456
0.848525
0.845592
0.842656
0.839717
0.836777
0.833833
0.830887
0.827939
0.824989
0.822035
0.81908
0.816122
0.813161
0.810198
0.807232
0.804264
0.801294
0.798321
0.795346
0.792368
0.789387
0.786405
0.783419
0.780432
0.777441
0.774449
0.771454
0.768456
0.765456
0.762453
0.759448
0.756441
0.753431
0.750418
0.747404
0.744386
0.741366
0.738344
0.735319
0.732292
0.729262
0.72623
0.723196
0.720158
0.717119
0.714077
0.711032
0.707985
0.704936
0.701884
0.698829
0.695773
0.692713
0.689651
0.686587
0.68352
0.680451
0.67738
0.674305
0.671229
0.66815
0.665068
0.661984
0.658898
0.655809
0.652717
0.649623
0.646527
0.643428
0.640327
0.637223
0.634117
0.631008
0.627897
0.624783
0.621667
0.618548
0.615427
0.612304
0.609178
0.606049
0.602918
0.599785
0.596649
0.593511
0.59037
0.587227
0.584081
0.580933
0.577782
0.574629
0.571473
0.568315
0.565155
0.561992
0.558826
0.555658
0.552488
0.549315
0.546139
0.542962
0.539781
0.536598
0.533413
0.530225
0.527035
0.523843
0.520647
0.51745
0.51425
0.511047
0.507842
0.504635
0.501425
0.498212
0.494998
0.49178
0.48856
0.485338
0.482113
0.478886
0.475656
0.472424
0.46919
0.465952
0.462713
0.459471
0.456226
0.452979
0.44973
0.446478
0.443224
0.439967
0.436707
0.433446
0.430181
0.426915
0.423645
0.420374
0.4171
0.413823
0.410544
0.407262
0.403978
0.400692
0.397403
0.394112
0.390818
0.387521
0.384223
0.380921
0.377617
0.374311
0.371003
0.367691
0.364378
0.361062
0.357743
0.354422
0.351098
0.347772
0.344444
0.341113
0.33778
0.334444
0.331106
0.327765
0.324421
0.321076
0.317728
0.314377
0.311024
0.307668
0.30431
0.300949
)
;

boundaryField
{
    bottom
    {
        type            fixedValue;
        value           uniform 1.19707;
    }
    top
    {
        type            fixedValue;
        value           uniform 0.299268;
    }
    sidesX
    {
        type            empty;
    }
    sidesY
    {
        type            empty;
    }
}


// ************************************************************************* //
