/*--------------------------------*- C++ -*----------------------------------*\
| =========                 |                                                 |
| \\      /  F ield         | OpenFOAM: The Open Source CFD Toolbox           |
|  \\    /   O peration     | Version:  v2012                                 |
|   \\  /    A nd           | Website:  www.openfoam.com                      |
|    \\/     M anipulation  |                                                 |
\*---------------------------------------------------------------------------*/
FoamFile
{
    version     2.0;
    format      ascii;
    class       volScalarField;
    location    "0.6";
    object      wa;
}
// * * * * * * * * * * * * * * * * * * * * * * * * * * * * * * * * * * * * * //

dimensions      [0 0 0 0 0 0 0];


internalField   nonuniform List<scalar> 
300
(
0.799124
0.79737
0.795614
0.793856
0.792097
0.790336
0.788574
0.78681
0.785044
0.783277
0.781508
0.779737
0.777965
0.776191
0.774415
0.772638
0.770859
0.769079
0.767297
0.765513
0.763727
0.76194
0.760151
0.758361
0.756569
0.754775
0.75298
0.751182
0.749384
0.747583
0.745781
0.743978
0.742172
0.740366
0.738557
0.736747
0.734935
0.733121
0.731306
0.729489
0.727671
0.72585
0.724029
0.722205
0.72038
0.718553
0.716725
0.714895
0.713063
0.71123
0.709395
0.707558
0.70572
0.70388
0.702038
0.700195
0.69835
0.696504
0.694655
0.692806
0.690954
0.689101
0.687246
0.68539
0.683532
0.681672
0.67981
0.677947
0.676083
0.674216
0.672348
0.670479
0.668607
0.666735
0.66486
0.662984
0.661106
0.659226
0.657345
0.655462
0.653578
0.651692
0.649804
0.647914
0.646023
0.64413
0.642236
0.64034
0.638442
0.636543
0.634642
0.632739
0.630835
0.628929
0.627021
0.625112
0.623201
0.621289
0.619375
0.617459
0.615541
0.613622
0.611701
0.609779
0.607855
0.605929
0.604002
0.602072
0.600142
0.598209
0.596275
0.59434
0.592402
0.590464
0.588523
0.586581
0.584637
0.582691
0.580744
0.578795
0.576845
0.574893
0.572939
0.570983
0.569026
0.567067
0.565107
0.563145
0.561181
0.559216
0.557249
0.55528
0.55331
0.551338
0.549364
0.547389
0.545412
0.543434
0.541454
0.539472
0.537488
0.535503
0.533516
0.531528
0.529538
0.527546
0.525553
0.523557
0.521561
0.519562
0.517562
0.515561
0.513557
0.511553
0.509546
0.507538
0.505528
0.503516
0.501503
0.499488
0.497472
0.495454
0.493434
0.491412
0.489389
0.487364
0.485338
0.48331
0.48128
0.479249
0.477216
0.475181
0.473145
0.471107
0.469067
0.467026
0.464983
0.462939
0.460893
0.458845
0.456795
0.454744
0.452691
0.450637
0.448581
0.446523
0.444464
0.442403
0.44034
0.438275
0.436209
0.434142
0.432073
0.430002
0.427929
0.425855
0.423779
0.421701
0.419622
0.417541
0.415459
0.413375
0.411289
0.409201
0.407112
0.405021
0.402929
0.400835
0.398739
0.396642
0.394543
0.392442
0.39034
0.388236
0.38613
0.384023
0.381914
0.379804
0.377692
0.375578
0.373462
0.371345
0.369226
0.367106
0.364984
0.36286
0.360735
0.358608
0.356479
0.354349
0.352217
0.350083
0.347948
0.345811
0.343672
0.341532
0.33939
0.337246
0.335101
0.332954
0.330806
0.328656
0.326504
0.32435
0.322195
0.320039
0.31788
0.31572
0.313558
0.311395
0.30923
0.307063
0.304895
0.302725
0.300554
0.29838
0.296205
0.294029
0.291851
0.289671
0.287489
0.285306
0.283121
0.280935
0.278747
0.276557
0.274366
0.272173
0.269978
0.267782
0.265584
0.263384
0.261183
0.25898
0.256775
0.254569
0.252361
0.250151
0.24794
0.245727
0.243513
0.241297
0.239079
0.236859
0.234638
0.232416
0.230191
0.227965
0.225737
0.223508
0.221277
0.219044
0.21681
0.214574
0.212337
0.210097
0.207856
0.205614
0.20337
0.201124
)
;

boundaryField
{
    bottom
    {
        type            calculated;
        value           uniform 0.8;
    }
    top
    {
        type            calculated;
        value           uniform 0.2;
    }
    sidesX
    {
        type            empty;
    }
    sidesY
    {
        type            empty;
    }
}


// ************************************************************************* //
