/*--------------------------------*- C++ -*----------------------------------*\
| =========                 |                                                 |
| \\      /  F ield         | OpenFOAM: The Open Source CFD Toolbox           |
|  \\    /   O peration     | Version:  v2012                                 |
|   \\  /    A nd           | Website:  www.openfoam.com                      |
|    \\/     M anipulation  |                                                 |
\*---------------------------------------------------------------------------*/
FoamFile
{
    version     2.0;
    format      ascii;
    class       volScalarField;
    location    "0.6";
    object      wb;
}
// * * * * * * * * * * * * * * * * * * * * * * * * * * * * * * * * * * * * * //

dimensions      [0 0 0 0 0 0 0];


internalField   nonuniform List<scalar> 
300
(
0.200876
0.20263
0.204386
0.206144
0.207903
0.209664
0.211426
0.21319
0.214956
0.216723
0.218492
0.220263
0.222035
0.223809
0.225585
0.227362
0.229141
0.230921
0.232703
0.234487
0.236273
0.23806
0.239849
0.241639
0.243431
0.245225
0.24702
0.248818
0.250616
0.252417
0.254219
0.256022
0.257828
0.259634
0.261443
0.263253
0.265065
0.266879
0.268694
0.270511
0.272329
0.27415
0.275971
0.277795
0.27962
0.281447
0.283275
0.285105
0.286937
0.28877
0.290605
0.292442
0.29428
0.29612
0.297962
0.299805
0.30165
0.303496
0.305345
0.307194
0.309046
0.310899
0.312754
0.31461
0.316468
0.318328
0.32019
0.322053
0.323917
0.325784
0.327652
0.329521
0.331393
0.333265
0.33514
0.337016
0.338894
0.340774
0.342655
0.344538
0.346422
0.348308
0.350196
0.352086
0.353977
0.35587
0.357764
0.35966
0.361558
0.363457
0.365358
0.367261
0.369165
0.371071
0.372979
0.374888
0.376799
0.378711
0.380625
0.382541
0.384459
0.386378
0.388299
0.390221
0.392145
0.394071
0.395998
0.397928
0.399858
0.401791
0.403725
0.40566
0.407598
0.409536
0.411477
0.413419
0.415363
0.417309
0.419256
0.421205
0.423155
0.425107
0.427061
0.429017
0.430974
0.432933
0.434893
0.436855
0.438819
0.440784
0.442751
0.44472
0.44669
0.448662
0.450636
0.452611
0.454588
0.456566
0.458546
0.460528
0.462512
0.464497
0.466484
0.468472
0.470462
0.472454
0.474447
0.476443
0.478439
0.480438
0.482438
0.484439
0.486443
0.488447
0.490454
0.492462
0.494472
0.496484
0.498497
0.500512
0.502528
0.504546
0.506566
0.508588
0.510611
0.512636
0.514662
0.51669
0.51872
0.520751
0.522784
0.524819
0.526855
0.528893
0.530933
0.532974
0.535017
0.537061
0.539107
0.541155
0.543205
0.545256
0.547309
0.549363
0.551419
0.553477
0.555536
0.557597
0.55966
0.561725
0.563791
0.565858
0.567927
0.569998
0.572071
0.574145
0.576221
0.578299
0.580378
0.582459
0.584541
0.586625
0.588711
0.590799
0.592888
0.594979
0.597071
0.599165
0.601261
0.603358
0.605457
0.607558
0.60966
0.611764
0.61387
0.615977
0.618086
0.620196
0.622308
0.624422
0.626538
0.628655
0.630774
0.632894
0.635016
0.63714
0.639265
0.641392
0.643521
0.645651
0.647783
0.649917
0.652052
0.654189
0.656328
0.658468
0.66061
0.662754
0.664899
0.667046
0.669194
0.671344
0.673496
0.67565
0.677805
0.679961
0.68212
0.68428
0.686442
0.688605
0.69077
0.692937
0.695105
0.697275
0.699446
0.70162
0.703795
0.705971
0.708149
0.710329
0.712511
0.714694
0.716879
0.719065
0.721253
0.723443
0.725634
0.727827
0.730022
0.732218
0.734416
0.736616
0.738817
0.74102
0.743225
0.745431
0.747639
0.749849
0.75206
0.754273
0.756487
0.758703
0.760921
0.763141
0.765362
0.767584
0.769809
0.772035
0.774263
0.776492
0.778723
0.780956
0.78319
0.785426
0.787663
0.789903
0.792144
0.794386
0.79663
0.798876
)
;

boundaryField
{
    bottom
    {
        type            calculated;
        value           uniform 0.2;
    }
    top
    {
        type            calculated;
        value           uniform 0.8;
    }
    sidesX
    {
        type            empty;
    }
    sidesY
    {
        type            empty;
    }
}


// ************************************************************************* //
