/*--------------------------------*- C++ -*----------------------------------*\
| =========                 |                                                 |
| \\      /  F ield         | OpenFOAM: The Open Source CFD Toolbox           |
|  \\    /   O peration     | Version:  v2012                                 |
|   \\  /    A nd           | Website:  www.openfoam.com                      |
|    \\/     M anipulation  |                                                 |
\*---------------------------------------------------------------------------*/
FoamFile
{
    version     2.0;
    format      ascii;
    class       volScalarField;
    location    "49";
    object      wa;
}
// * * * * * * * * * * * * * * * * * * * * * * * * * * * * * * * * * * * * * //

dimensions      [0 0 0 0 0 0 0];


internalField   nonuniform List<scalar> 
300
(
0.799119
0.797356
0.795592
0.793826
0.792058
0.79029
0.788519
0.786748
0.784974
0.7832
0.781423
0.779646
0.777867
0.776086
0.774304
0.77252
0.770735
0.768949
0.767161
0.765371
0.76358
0.761788
0.759994
0.758198
0.756401
0.754603
0.752803
0.751002
0.749199
0.747394
0.745588
0.743781
0.741972
0.740162
0.73835
0.736536
0.734721
0.732905
0.731087
0.729268
0.727447
0.725624
0.7238
0.721975
0.720148
0.718319
0.716489
0.714658
0.712825
0.71099
0.709154
0.707316
0.705477
0.703637
0.701794
0.699951
0.698105
0.696259
0.69441
0.69256
0.690709
0.688856
0.687002
0.685146
0.683288
0.681429
0.679568
0.677706
0.675842
0.673977
0.67211
0.670242
0.668372
0.666501
0.664628
0.662753
0.660877
0.658999
0.65712
0.655239
0.653357
0.651473
0.649588
0.647701
0.645812
0.643922
0.64203
0.640137
0.638242
0.636345
0.634447
0.632548
0.630647
0.628744
0.626839
0.624934
0.623026
0.621117
0.619206
0.617294
0.61538
0.613465
0.611548
0.609629
0.607709
0.605787
0.603864
0.601939
0.600012
0.598084
0.596154
0.594223
0.59229
0.590355
0.588419
0.586481
0.584542
0.582601
0.580658
0.578714
0.576768
0.574821
0.572872
0.570921
0.568969
0.567015
0.565059
0.563102
0.561143
0.559183
0.557221
0.555257
0.553292
0.551325
0.549357
0.547386
0.545415
0.543441
0.541466
0.539489
0.537511
0.535531
0.533549
0.531566
0.529581
0.527594
0.525606
0.523616
0.521625
0.519631
0.517637
0.51564
0.513642
0.511642
0.509641
0.507638
0.505633
0.503626
0.501618
0.499608
0.497597
0.495584
0.493569
0.491552
0.489534
0.487514
0.485493
0.48347
0.481445
0.479418
0.47739
0.47536
0.473329
0.471295
0.469261
0.467224
0.465186
0.463146
0.461104
0.45906
0.457015
0.454969
0.45292
0.45087
0.448818
0.446764
0.444709
0.442652
0.440593
0.438533
0.436471
0.434407
0.432341
0.430274
0.428205
0.426134
0.424062
0.421988
0.419912
0.417834
0.415755
0.413674
0.411591
0.409507
0.407421
0.405333
0.403243
0.401152
0.399059
0.396964
0.394867
0.392769
0.390669
0.388567
0.386463
0.384358
0.382251
0.380142
0.378031
0.375919
0.373805
0.371689
0.369572
0.367452
0.365331
0.363208
0.361084
0.358957
0.356829
0.354699
0.352568
0.350434
0.348299
0.346162
0.344023
0.341883
0.33974
0.337596
0.33545
0.333303
0.331153
0.329002
0.326849
0.324694
0.322538
0.320379
0.318219
0.316057
0.313893
0.311728
0.309561
0.307391
0.305221
0.303048
0.300873
0.298697
0.296519
0.294339
0.292157
0.289974
0.287788
0.285601
0.283412
0.281221
0.279029
0.276834
0.274638
0.27244
0.27024
0.268038
0.265835
0.263629
0.261422
0.259213
0.257002
0.254789
0.252575
0.250358
0.24814
0.24592
0.243698
0.241474
0.239249
0.237021
0.234792
0.232561
0.230328
0.228093
0.225856
0.223618
0.221377
0.219135
0.216891
0.214645
0.212397
0.210147
0.207896
0.205642
0.203387
0.20113
)
;

boundaryField
{
    bottom
    {
        type            calculated;
        value           uniform 0.8;
    }
    top
    {
        type            calculated;
        value           uniform 0.2;
    }
    sidesX
    {
        type            empty;
    }
    sidesY
    {
        type            empty;
    }
}


// ************************************************************************* //
