/*--------------------------------*- C++ -*----------------------------------*\
| =========                 |                                                 |
| \\      /  F ield         | OpenFOAM: The Open Source CFD Toolbox           |
|  \\    /   O peration     | Version:  v2012                                 |
|   \\  /    A nd           | Website:  www.openfoam.com                      |
|    \\/     M anipulation  |                                                 |
\*---------------------------------------------------------------------------*/
FoamFile
{
    version     2.0;
    format      ascii;
    class       volScalarField;
    location    "49";
    object      wb;
}
// * * * * * * * * * * * * * * * * * * * * * * * * * * * * * * * * * * * * * //

dimensions      [0 0 0 0 0 0 0];


internalField   nonuniform List<scalar> 
300
(
0.200881
0.202644
0.204408
0.206174
0.207942
0.20971
0.211481
0.213252
0.215026
0.2168
0.218577
0.220354
0.222133
0.223914
0.225696
0.22748
0.229265
0.231051
0.232839
0.234629
0.23642
0.238212
0.240006
0.241802
0.243599
0.245397
0.247197
0.248998
0.250801
0.252606
0.254412
0.256219
0.258028
0.259838
0.26165
0.263464
0.265279
0.267095
0.268913
0.270732
0.272553
0.274376
0.2762
0.278025
0.279852
0.281681
0.283511
0.285342
0.287175
0.28901
0.290846
0.292684
0.294523
0.296363
0.298206
0.300049
0.301895
0.303741
0.30559
0.30744
0.309291
0.311144
0.312998
0.314854
0.316712
0.318571
0.320432
0.322294
0.324158
0.326023
0.32789
0.329758
0.331628
0.333499
0.335372
0.337247
0.339123
0.341001
0.34288
0.344761
0.346643
0.348527
0.350412
0.352299
0.354188
0.356078
0.35797
0.359863
0.361758
0.363655
0.365553
0.367452
0.369353
0.371256
0.373161
0.375066
0.376974
0.378883
0.380794
0.382706
0.38462
0.386535
0.388452
0.390371
0.392291
0.394213
0.396136
0.398061
0.399988
0.401916
0.403846
0.405777
0.40771
0.409645
0.411581
0.413519
0.415458
0.417399
0.419342
0.421286
0.423232
0.425179
0.427128
0.429079
0.431031
0.432985
0.434941
0.436898
0.438857
0.440817
0.442779
0.444743
0.446708
0.448675
0.450643
0.452614
0.454585
0.456559
0.458534
0.460511
0.462489
0.464469
0.466451
0.468434
0.470419
0.472406
0.474394
0.476384
0.478375
0.480369
0.482363
0.48436
0.486358
0.488358
0.490359
0.492362
0.494367
0.496374
0.498382
0.500392
0.502403
0.504416
0.506431
0.508448
0.510466
0.512486
0.514507
0.51653
0.518555
0.520582
0.52261
0.52464
0.526671
0.528705
0.530739
0.532776
0.534814
0.536854
0.538896
0.54094
0.542985
0.545031
0.54708
0.54913
0.551182
0.553236
0.555291
0.557348
0.559407
0.561467
0.563529
0.565593
0.567659
0.569726
0.571795
0.573866
0.575938
0.578012
0.580088
0.582166
0.584245
0.586326
0.588409
0.590493
0.592579
0.594667
0.596757
0.598848
0.600941
0.603036
0.605133
0.607231
0.609331
0.611433
0.613537
0.615642
0.617749
0.619858
0.621969
0.624081
0.626195
0.628311
0.630428
0.632548
0.634669
0.636792
0.638916
0.641043
0.643171
0.645301
0.647432
0.649566
0.651701
0.653838
0.655977
0.658117
0.66026
0.662404
0.66455
0.666697
0.668847
0.670998
0.673151
0.675306
0.677462
0.679621
0.681781
0.683943
0.686107
0.688272
0.690439
0.692609
0.694779
0.696952
0.699127
0.701303
0.703481
0.705661
0.707843
0.710026
0.712212
0.714399
0.716588
0.718779
0.720971
0.723166
0.725362
0.72756
0.72976
0.731962
0.734165
0.736371
0.738578
0.740787
0.742998
0.745211
0.747425
0.749642
0.75186
0.75408
0.756302
0.758526
0.760751
0.762979
0.765208
0.767439
0.769672
0.771907
0.774144
0.776382
0.778623
0.780865
0.783109
0.785355
0.787603
0.789853
0.792104
0.794358
0.796613
0.79887
)
;

boundaryField
{
    bottom
    {
        type            calculated;
        value           uniform 0.2;
    }
    top
    {
        type            calculated;
        value           uniform 0.8;
    }
    sidesX
    {
        type            empty;
    }
    sidesY
    {
        type            empty;
    }
}


// ************************************************************************* //
