/*--------------------------------*- C++ -*----------------------------------*\
| =========                 |                                                 |
| \\      /  F ield         | OpenFOAM: The Open Source CFD Toolbox           |
|  \\    /   O peration     | Version:  v2012                                 |
|   \\  /    A nd           | Website:  www.openfoam.com                      |
|    \\/     M anipulation  |                                                 |
\*---------------------------------------------------------------------------*/
FoamFile
{
    version     2.0;
    format      ascii;
    class       volVectorField;
    location    "48.5";
    object      jb;
}
// * * * * * * * * * * * * * * * * * * * * * * * * * * * * * * * * * * * * * //

dimensions      [1 -2 -1 0 0 0 0];


internalField   nonuniform List<vector> 
100
(
(-0 -0 -1.2272e-05)
(-0 -0 -1.23025e-05)
(-0 -0 -1.23332e-05)
(-0 -0 -1.23639e-05)
(-0 -0 -1.23947e-05)
(-0 -0 -1.24255e-05)
(-0 -0 -1.24565e-05)
(-0 -0 -1.24875e-05)
(-0 -0 -1.25186e-05)
(-0 -0 -1.25498e-05)
(-0 -0 -1.25811e-05)
(-0 -0 -1.26124e-05)
(-0 -0 -1.26438e-05)
(-0 -0 -1.26753e-05)
(-0 -0 -1.27069e-05)
(-0 -0 -1.27385e-05)
(-0 -0 -1.27703e-05)
(-0 -0 -1.28021e-05)
(-0 -0 -1.2834e-05)
(-0 -0 -1.28659e-05)
(-0 -0 -1.2898e-05)
(-0 -0 -1.29301e-05)
(-0 -0 -1.29623e-05)
(-0 -0 -1.29946e-05)
(-0 -0 -1.3027e-05)
(-0 -0 -1.30594e-05)
(-0 -0 -1.30919e-05)
(-0 -0 -1.31245e-05)
(-0 -0 -1.31572e-05)
(-0 -0 -1.319e-05)
(-0 -0 -1.32229e-05)
(-0 -0 -1.32558e-05)
(-0 -0 -1.32888e-05)
(-0 -0 -1.33219e-05)
(-0 -0 -1.33551e-05)
(-0 -0 -1.33884e-05)
(-0 -0 -1.34217e-05)
(-0 -0 -1.34551e-05)
(-0 -0 -1.34887e-05)
(-0 -0 -1.35223e-05)
(-0 -0 -1.35559e-05)
(-0 -0 -1.35897e-05)
(-0 -0 -1.36236e-05)
(-0 -0 -1.36575e-05)
(-0 -0 -1.36915e-05)
(-0 -0 -1.37256e-05)
(-0 -0 -1.37598e-05)
(-0 -0 -1.37941e-05)
(-0 -0 -1.38284e-05)
(-0 -0 -1.38629e-05)
(-0 -0 -1.38974e-05)
(-0 -0 -1.3932e-05)
(-0 -0 -1.39667e-05)
(-0 -0 -1.40015e-05)
(-0 -0 -1.40364e-05)
(-0 -0 -1.40714e-05)
(-0 -0 -1.41064e-05)
(-0 -0 -1.41415e-05)
(-0 -0 -1.41768e-05)
(-0 -0 -1.42121e-05)
(-0 -0 -1.42475e-05)
(-0 -0 -1.4283e-05)
(-0 -0 -1.43185e-05)
(-0 -0 -1.43542e-05)
(-0 -0 -1.439e-05)
(-0 -0 -1.44258e-05)
(-0 -0 -1.44617e-05)
(-0 -0 -1.44978e-05)
(-0 -0 -1.45339e-05)
(-0 -0 -1.45701e-05)
(-0 -0 -1.46064e-05)
(-0 -0 -1.46427e-05)
(-0 -0 -1.46792e-05)
(-0 -0 -1.47158e-05)
(-0 -0 -1.47524e-05)
(-0 -0 -1.47892e-05)
(-0 -0 -1.4826e-05)
(-0 -0 -1.48629e-05)
(-0 -0 -1.49e-05)
(-0 -0 -1.49371e-05)
(-0 -0 -1.49743e-05)
(-0 -0 -1.50116e-05)
(-0 -0 -1.5049e-05)
(-0 -0 -1.50865e-05)
(-0 -0 -1.5124e-05)
(-0 -0 -1.51617e-05)
(-0 -0 -1.51995e-05)
(-0 -0 -1.52373e-05)
(-0 -0 -1.52753e-05)
(-0 -0 -1.53133e-05)
(-0 -0 -1.53515e-05)
(-0 -0 -1.53897e-05)
(-0 -0 -1.54281e-05)
(-0 -0 -1.54665e-05)
(-0 -0 -1.5505e-05)
(-0 -0 -1.55436e-05)
(-0 -0 -1.55823e-05)
(-0 -0 -1.56212e-05)
(-0 -0 -1.56601e-05)
(-0 -0 -1.56991e-05)
)
;

boundaryField
{
    bottom
    {
        type            calculated;
        value           uniform (-0 -0 -1.22567e-05);
    }
    top
    {
        type            calculated;
        value           uniform (-0 -0 -1.57186e-05);
    }
    sidesX
    {
        type            empty;
    }
    sidesY
    {
        type            empty;
    }
}


// ************************************************************************* //
